M 0.00000 0 (177.10, 431.46, 0.00), (693.85, 539.85), 0.00
M 0.00000 1 (189.86, 219.52, 0.00), (577.02, 296.25), 0.00
M 0.00000 2 (216.66, 430.52, 0.00), (412.32, 678.63), 0.00
M 0.00000 3 (391.17, 368.92, 0.00), (317.89, 383.86), 0.00
M 0.00000 4 (552.71, 507.20, 0.00), (190.11, 192.22), 0.00
M 0.00000 5 (708.50, 780.14, 0.00), (205.51, 643.85), 0.00
M 0.00000 6 (676.03, 463.35, 0.00), (297.25, 571.55), 0.00
M 0.00000 7 (615.83, 15.62, 0.00), (636.81, 273.43), 0.00
M 0.00000 8 (256.97, 345.53, 0.00), (359.00, 761.92), 0.00
M 0.00000 9 (402.32, 263.15, 0.00), (580.88, 641.63), 0.00
M 0.00000 10 (241.34, 601.40, 0.00), (403.67, 350.16), 0.00
M 0.00000 11 (49.63, 241.43, 0.00), (768.53, 418.39), 0.00
M 0.00000 12 (68.06, 465.46, 0.00), (518.46, 344.74), 0.00
M 0.00000 13 (398.68, 19.01, 0.00), (552.48, 621.11), 0.00
M 0.00000 14 (162.79, 764.68, 0.00), (83.91, 623.84), 0.00
M 0.00000 15 (524.18, 437.41, 0.00), (20.19, 619.52), 0.00
M 0.00000 16 (520.02, 781.44, 0.00), (246.52, 54.24), 0.00
M 0.00000 17 (112.27, 396.26, 0.00), (2.61, 421.02), 0.00
M 0.00000 18 (778.65, 266.60, 0.00), (177.50, 682.19), 0.00
M 0.00000 19 (215.31, 155.85, 0.00), (706.67, 618.69), 0.00
M 0.00000 20 (22.59, 649.54, 0.00), (512.88, 169.63), 0.00
M 0.00000 21 (320.97, 81.07, 0.00), (285.98, 529.58), 0.00
M 0.00000 22 (284.76, 120.16, 0.00), (406.80, 276.35), 0.00
M 0.00000 23 (35.31, 733.11, 0.00), (23.23, 400.22), 0.00
M 0.00000 24 (15.81, 281.15, 0.00), (592.33, 173.40), 0.00
M 0.00000 25 (614.19, 234.06, 0.00), (277.31, 547.93), 0.00
M 0.00000 26 (201.59, 512.17, 0.00), (619.75, 663.80), 0.00
M 0.00000 27 (318.40, 604.01, 0.00), (27.61, 49.07), 0.00
M 0.00000 28 (656.96, 230.85, 0.00), (540.45, 777.27), 0.00
M 0.00000 29 (275.29, 473.50, 0.00), (480.48, 259.73), 0.00
s 0.000087269 _30_ RTR  --- 0 undefined 48 [0 0 0 0] [energy 1000.000000 ei 0.000 es 0.000 et 0.000 er 0.000] ------- [30:255 -1:255 32 0] [1 0 [HELLO 30 0 0]]
s 0.000169789 _0_ RTR  --- 1 undefined 48 [0 0 0 0] [energy 1000.000000 ei 0.000 es 0.000 et 0.000 er 0.000] ------- [0:255 -1:255 32 0] [1 0 [HELLO 0 0 0]]
s 0.000282269 _30_ MAC  --- 0 undefined 106 [0 ffffffff 1e 800] [energy 1000.000000 ei 0.000 es 0.000 et 0.000 er 0.000] ------- [30:255 -1:255 32 0] [1 0 [HELLO 30 0 0]]
N -t 0.000283 -n 19 -e 999.999825
N -t 0.000283 -n 1 -e 999.999825
N -t 0.000283 -n 22 -e 999.999825
N -t 0.000283 -n 11 -e 999.999825
N -t 0.000283 -n 21 -e 999.999825
N -t 0.000283 -n 24 -e 999.999825
N -t 0.000283 -n 13 -e 999.999825
N -t 0.000283 -n 8 -e 999.999825
N -t 0.000283 -n 17 -e 999.999825
N -t 0.000284 -n 9 -e 999.999825
N -t 0.000284 -n 0 -e 999.999825
N -t 0.000284 -n 2 -e 999.999825
N -t 0.000284 -n 12 -e 999.999825
N -t 0.000284 -n 3 -e 999.999825
N -t 0.000284 -n 29 -e 999.999825
N -t 0.000284 -n 26 -e 999.999825
N -t 0.000284 -n 7 -e 999.999825
N -t 0.000284 -n 25 -e 999.999825
r 0.001130791 _19_ MAC  --- 0 undefined 48 [0 ffffffff 1e 800] [energy 999.999825 ei 0.000 es 0.000 et 0.000 er 0.000] ------- [30:255 -1:255 32 0] [1 0 [HELLO 30 0 0]]
r 0.001130909 _1_ MAC  --- 0 undefined 48 [0 ffffffff 1e 800] [energy 999.999825 ei 0.000 es 0.000 et 0.000 er 0.000] ------- [30:255 -1:255 32 0] [1 0 [HELLO 30 0 0]]
r 0.001130928 _22_ MAC  --- 0 undefined 48 [0 ffffffff 1e 800] [energy 999.999825 ei 0.000 es 0.000 et 0.000 er 0.000] ------- [30:255 -1:255 32 0] [1 0 [HELLO 30 0 0]]
r 0.001130929 _11_ MAC  --- 0 undefined 48 [0 ffffffff 1e 800] [energy 999.999825 ei 0.000 es 0.000 et 0.000 er 0.000] ------- [30:255 -1:255 32 0] [1 0 [HELLO 30 0 0]]
r 0.001131013 _21_ MAC  --- 0 undefined 48 [0 ffffffff 1e 800] [energy 999.999825 ei 0.000 es 0.000 et 0.000 er 0.000] ------- [30:255 -1:255 32 0] [1 0 [HELLO 30 0 0]]
r 0.001131089 _24_ MAC  --- 0 undefined 48 [0 ffffffff 1e 800] [energy 999.999825 ei 0.000 es 0.000 et 0.000 er 0.000] ------- [30:255 -1:255 32 0] [1 0 [HELLO 30 0 0]]
r 0.001155791 _19_ RTR  --- 0 undefined 48 [0 ffffffff 1e 800] [energy 999.999825 ei 0.000 es 0.000 et 0.000 er 0.000] ------- [30:255 -1:255 32 0] [1 0 [HELLO 30 0 0]]
r 0.001155909 _1_ RTR  --- 0 undefined 48 [0 ffffffff 1e 800] [energy 999.999825 ei 0.000 es 0.000 et 0.000 er 0.000] ------- [30:255 -1:255 32 0] [1 0 [HELLO 30 0 0]]
r 0.001155928 _22_ RTR  --- 0 undefined 48 [0 ffffffff 1e 800] [energy 999.999825 ei 0.000 es 0.000 et 0.000 er 0.000] ------- [30:255 -1:255 32 0] [1 0 [HELLO 30 0 0]]
r 0.001155929 _11_ RTR  --- 0 undefined 48 [0 ffffffff 1e 800] [energy 999.999825 ei 0.000 es 0.000 et 0.000 er 0.000] ------- [30:255 -1:255 32 0] [1 0 [HELLO 30 0 0]]
r 0.001156013 _21_ RTR  --- 0 undefined 48 [0 ffffffff 1e 800] [energy 999.999825 ei 0.000 es 0.000 et 0.000 er 0.000] ------- [30:255 -1:255 32 0] [1 0 [HELLO 30 0 0]]
r 0.001156089 _24_ RTR  --- 0 undefined 48 [0 ffffffff 1e 800] [energy 999.999825 ei 0.000 es 0.000 et 0.000 er 0.000] ------- [30:255 -1:255 32 0] [1 0 [HELLO 30 0 0]]
s 0.001685567 _0_ MAC  --- 1 undefined 106 [0 ffffffff 0 800] [energy 999.999825 ei 0.000 es 0.000 et 0.000 er 0.000] ------- [0:255 -1:255 32 0] [1 0 [HELLO 0 0 0]]
N -t 0.001686 -n 2 -e 999.999640
N -t 0.001686 -n 17 -e 999.999640
N -t 0.001686 -n 26 -e 999.999640
N -t 0.001686 -n 29 -e 999.999640
N -t 0.001686 -n 12 -e 999.999640
N -t 0.001686 -n 8 -e 999.999640
N -t 0.001686 -n 10 -e 999.999776
N -t 0.001686 -n 1 -e 999.999640
N -t 0.001686 -n 24 -e 999.999640
N -t 0.001686 -n 3 -e 999.999640
N -t 0.001686 -n 27 -e 999.999776
N -t 0.001686 -n 11 -e 999.999640
N -t 0.001686 -n 20 -e 999.999776
N -t 0.001686 -n 19 -e 999.999640
N -t 0.001687 -n 9 -e 999.999640
N -t 0.001687 -n 22 -e 999.999640
N -t 0.001687 -n 23 -e 999.999776
N -t 0.001687 -n 14 -e 999.999776
N -t 0.001687 -n 15 -e 999.999776
N -t 0.001687 -n 21 -e 999.999640
N -t 0.001687 -n 4 -e 999.999776
N -t 0.001687 -n 30 -e 999.999566
N -t 0.001687 -n 13 -e 999.999640
N -t 0.001687 -n 25 -e 999.999640
N -t 0.001687 -n 16 -e 999.999776
N -t 0.001687 -n 6 -e 999.999776
N -t 0.001687 -n 28 -e 999.999776
r 0.002533699 _2_ MAC  --- 1 undefined 48 [0 ffffffff 0 800] [energy 999.999640 ei 0.000 es 0.000 et 0.000 er 0.000] ------- [0:255 -1:255 32 0] [1 0 [HELLO 0 0 0]]
r 0.002533813 _17_ MAC  --- 1 undefined 48 [0 ffffffff 0 800] [energy 999.999640 ei 0.000 es 0.000 et 0.000 er 0.000] ------- [0:255 -1:255 32 0] [1 0 [HELLO 0 0 0]]
r 0.002533848 _26_ MAC  --- 1 undefined 48 [0 ffffffff 0 800] [energy 999.999640 ei 0.000 es 0.000 et 0.000 er 0.000] ------- [0:255 -1:255 32 0] [1 0 [HELLO 0 0 0]]
r 0.002533923 _29_ MAC  --- 1 undefined 48 [0 ffffffff 0 800] [energy 999.999640 ei 0.000 es 0.000 et 0.000 er 0.000] ------- [0:255 -1:255 32 0] [1 0 [HELLO 0 0 0]]
r 0.002533947 _12_ MAC  --- 1 undefined 48 [0 ffffffff 0 800] [energy 999.999640 ei 0.000 es 0.000 et 0.000 er 0.000] ------- [0:255 -1:255 32 0] [1 0 [HELLO 0 0 0]]
r 0.002533958 _8_ MAC  --- 1 undefined 48 [0 ffffffff 0 800] [energy 999.999640 ei 0.000 es 0.000 et 0.000 er 0.000] ------- [0:255 -1:255 32 0] [1 0 [HELLO 0 0 0]]
r 0.002534172 _10_ MAC  --- 1 undefined 48 [0 ffffffff 0 800] [energy 999.999776 ei 0.000 es 0.000 et 0.000 er 0.000] ------- [0:255 -1:255 32 0] [1 0 [HELLO 0 0 0]]
r 0.002534274 _1_ MAC  --- 1 undefined 48 [0 ffffffff 0 800] [energy 999.999640 ei 0.000 es 0.000 et 0.000 er 0.000] ------- [0:255 -1:255 32 0] [1 0 [HELLO 0 0 0]]
r 0.002534302 _24_ MAC  --- 1 undefined 48 [0 ffffffff 0 800] [energy 999.999640 ei 0.000 es 0.000 et 0.000 er 0.000] ------- [0:255 -1:255 32 0] [1 0 [HELLO 0 0 0]]
r 0.002534310 _3_ MAC  --- 1 undefined 48 [0 ffffffff 0 800] [energy 999.999640 ei 0.000 es 0.000 et 0.000 er 0.000] ------- [0:255 -1:255 32 0] [1 0 [HELLO 0 0 0]]
r 0.002534310 _27_ MAC  --- 1 undefined 48 [0 ffffffff 0 800] [energy 999.999776 ei 0.000 es 0.000 et 0.000 er 0.000] ------- [0:255 -1:255 32 0] [1 0 [HELLO 0 0 0]]
r 0.002534329 _11_ MAC  --- 1 undefined 48 [0 ffffffff 0 800] [energy 999.999640 ei 0.000 es 0.000 et 0.000 er 0.000] ------- [0:255 -1:255 32 0] [1 0 [HELLO 0 0 0]]
r 0.002558699 _2_ RTR  --- 1 undefined 48 [0 ffffffff 0 800] [energy 999.999640 ei 0.000 es 0.000 et 0.000 er 0.000] ------- [0:255 -1:255 32 0] [1 0 [HELLO 0 0 0]]
r 0.002558813 _17_ RTR  --- 1 undefined 48 [0 ffffffff 0 800] [energy 999.999640 ei 0.000 es 0.000 et 0.000 er 0.000] ------- [0:255 -1:255 32 0] [1 0 [HELLO 0 0 0]]
r 0.002558848 _26_ RTR  --- 1 undefined 48 [0 ffffffff 0 800] [energy 999.999640 ei 0.000 es 0.000 et 0.000 er 0.000] ------- [0:255 -1:255 32 0] [1 0 [HELLO 0 0 0]]
r 0.002558923 _29_ RTR  --- 1 undefined 48 [0 ffffffff 0 800] [energy 999.999640 ei 0.000 es 0.000 et 0.000 er 0.000] ------- [0:255 -1:255 32 0] [1 0 [HELLO 0 0 0]]
r 0.002558947 _12_ RTR  --- 1 undefined 48 [0 ffffffff 0 800] [energy 999.999640 ei 0.000 es 0.000 et 0.000 er 0.000] ------- [0:255 -1:255 32 0] [1 0 [HELLO 0 0 0]]
r 0.002558958 _8_ RTR  --- 1 undefined 48 [0 ffffffff 0 800] [energy 999.999640 ei 0.000 es 0.000 et 0.000 er 0.000] ------- [0:255 -1:255 32 0] [1 0 [HELLO 0 0 0]]
r 0.002559172 _10_ RTR  --- 1 undefined 48 [0 ffffffff 0 800] [energy 999.999776 ei 0.000 es 0.000 et 0.000 er 0.000] ------- [0:255 -1:255 32 0] [1 0 [HELLO 0 0 0]]
r 0.002559274 _1_ RTR  --- 1 undefined 48 [0 ffffffff 0 800] [energy 999.999640 ei 0.000 es 0.000 et 0.000 er 0.000] ------- [0:255 -1:255 32 0] [1 0 [HELLO 0 0 0]]
r 0.002559302 _24_ RTR  --- 1 undefined 48 [0 ffffffff 0 800] [energy 999.999640 ei 0.000 es 0.000 et 0.000 er 0.000] ------- [0:255 -1:255 32 0] [1 0 [HELLO 0 0 0]]
r 0.002559310 _3_ RTR  --- 1 undefined 48 [0 ffffffff 0 800] [energy 999.999640 ei 0.000 es 0.000 et 0.000 er 0.000] ------- [0:255 -1:255 32 0] [1 0 [HELLO 0 0 0]]
r 0.002559310 _27_ RTR  --- 1 undefined 48 [0 ffffffff 0 800] [energy 999.999776 ei 0.000 es 0.000 et 0.000 er 0.000] ------- [0:255 -1:255 32 0] [1 0 [HELLO 0 0 0]]
r 0.002559329 _11_ RTR  --- 1 undefined 48 [0 ffffffff 0 800] [energy 999.999640 ei 0.000 es 0.000 et 0.000 er 0.000] ------- [0:255 -1:255 32 0] [1 0 [HELLO 0 0 0]]
s 0.044061336 _1_ RTR  --- 2 undefined 48 [0 0 0 0] [energy 999.999640 ei 0.000 es 0.000 et 0.000 er 0.000] ------- [1:255 -1:255 32 0] [1 0 [HELLO 1 0 0]]
s 0.044276336 _1_ MAC  --- 2 undefined 106 [0 ffffffff 1 800] [energy 999.999640 ei 0.000 es 0.000 et 0.000 er 0.000] ------- [1:255 -1:255 32 0] [1 0 [HELLO 1 0 0]]
N -t 0.044277 -n 19 -e 999.998014
N -t 0.044277 -n 22 -e 999.998014
N -t 0.044277 -n 11 -e 999.998014
N -t 0.044277 -n 8 -e 999.998014
N -t 0.044277 -n 24 -e 999.998014
N -t 0.044277 -n 21 -e 999.998014
N -t 0.044277 -n 30 -e 999.997940
N -t 0.044277 -n 17 -e 999.998014
N -t 0.044277 -n 0 -e 999.997940
N -t 0.044277 -n 2 -e 999.998014
N -t 0.044277 -n 9 -e 999.998014
N -t 0.044277 -n 3 -e 999.998014
N -t 0.044277 -n 29 -e 999.998014
N -t 0.044277 -n 12 -e 999.998014
N -t 0.044277 -n 13 -e 999.998014
N -t 0.044277 -n 26 -e 999.998014
N -t 0.044278 -n 10 -e 999.998149
N -t 0.044278 -n 15 -e 999.998149
N -t 0.044278 -n 27 -e 999.998149
N -t 0.044278 -n 25 -e 999.998014
N -t 0.044278 -n 20 -e 999.998149
N -t 0.044278 -n 4 -e 999.998149
N -t 0.044278 -n 28 -e 999.998149
N -t 0.044278 -n 7 -e 999.998149
N -t 0.044278 -n 23 -e 999.998149
N -t 0.044278 -n 6 -e 999.998149
N -t 0.044278 -n 14 -e 999.998149
r 0.045124564 _19_ MAC  --- 2 undefined 48 [0 ffffffff 1 800] [energy 999.998014 ei 0.001 es 0.000 et 0.000 er 0.000] ------- [1:255 -1:255 32 0] [1 0 [HELLO 1 0 0]]
r 0.045124794 _22_ MAC  --- 2 undefined 48 [0 ffffffff 1 800] [energy 999.998014 ei 0.001 es 0.000 et 0.000 er 0.000] ------- [1:255 -1:255 32 0] [1 0 [HELLO 1 0 0]]
r 0.045124809 _11_ MAC  --- 2 undefined 48 [0 ffffffff 1 800] [energy 999.998014 ei 0.001 es 0.000 et 0.000 er 0.000] ------- [1:255 -1:255 32 0] [1 0 [HELLO 1 0 0]]
r 0.045124812 _8_ MAC  --- 2 undefined 48 [0 ffffffff 1 800] [energy 999.998014 ei 0.001 es 0.000 et 0.000 er 0.000] ------- [1:255 -1:255 32 0] [1 0 [HELLO 1 0 0]]
r 0.045124951 _24_ MAC  --- 2 undefined 48 [0 ffffffff 1 800] [energy 999.998014 ei 0.001 es 0.000 et 0.000 er 0.000] ------- [1:255 -1:255 32 0] [1 0 [HELLO 1 0 0]]
r 0.045124971 _21_ MAC  --- 2 undefined 48 [0 ffffffff 1 800] [energy 999.998014 ei 0.001 es 0.000 et 0.000 er 0.000] ------- [1:255 -1:255 32 0] [1 0 [HELLO 1 0 0]]
r 0.045124975 _30_ MAC  --- 2 undefined 48 [0 ffffffff 1 800] [energy 999.997940 ei 0.001 es 0.000 et 0.000 er 0.000] ------- [1:255 -1:255 32 0] [1 0 [HELLO 1 0 0]]
r 0.045124979 _17_ MAC  --- 2 undefined 48 [0 ffffffff 1 800] [energy 999.998014 ei 0.001 es 0.000 et 0.000 er 0.000] ------- [1:255 -1:255 32 0] [1 0 [HELLO 1 0 0]]
r 0.045125043 _0_ MAC  --- 2 undefined 48 [0 ffffffff 1 800] [energy 999.997940 ei 0.001 es 0.000 et 0.000 er 0.000] ------- [1:255 -1:255 32 0] [1 0 [HELLO 1 0 0]]
r 0.045125045 _2_ MAC  --- 2 undefined 48 [0 ffffffff 1 800] [energy 999.998014 ei 0.001 es 0.000 et 0.000 er 0.000] ------- [1:255 -1:255 32 0] [1 0 [HELLO 1 0 0]]
r 0.045125059 _9_ MAC  --- 2 undefined 48 [0 ffffffff 1 800] [energy 999.998014 ei 0.001 es 0.000 et 0.000 er 0.000] ------- [1:255 -1:255 32 0] [1 0 [HELLO 1 0 0]]
r 0.045149564 _19_ RTR  --- 2 undefined 48 [0 ffffffff 1 800] [energy 999.998014 ei 0.001 es 0.000 et 0.000 er 0.000] ------- [1:255 -1:255 32 0] [1 0 [HELLO 1 0 0]]
r 0.045149794 _22_ RTR  --- 2 undefined 48 [0 ffffffff 1 800] [energy 999.998014 ei 0.001 es 0.000 et 0.000 er 0.000] ------- [1:255 -1:255 32 0] [1 0 [HELLO 1 0 0]]
r 0.045149809 _11_ RTR  --- 2 undefined 48 [0 ffffffff 1 800] [energy 999.998014 ei 0.001 es 0.000 et 0.000 er 0.000] ------- [1:255 -1:255 32 0] [1 0 [HELLO 1 0 0]]
r 0.045149812 _8_ RTR  --- 2 undefined 48 [0 ffffffff 1 800] [energy 999.998014 ei 0.001 es 0.000 et 0.000 er 0.000] ------- [1:255 -1:255 32 0] [1 0 [HELLO 1 0 0]]
r 0.045149951 _24_ RTR  --- 2 undefined 48 [0 ffffffff 1 800] [energy 999.998014 ei 0.001 es 0.000 et 0.000 er 0.000] ------- [1:255 -1:255 32 0] [1 0 [HELLO 1 0 0]]
r 0.045149971 _21_ RTR  --- 2 undefined 48 [0 ffffffff 1 800] [energy 999.998014 ei 0.001 es 0.000 et 0.000 er 0.000] ------- [1:255 -1:255 32 0] [1 0 [HELLO 1 0 0]]
r 0.045149975 _30_ RTR  --- 2 undefined 48 [0 ffffffff 1 800] [energy 999.997940 ei 0.001 es 0.000 et 0.000 er 0.000] ------- [1:255 -1:255 32 0] [1 0 [HELLO 1 0 0]]
r 0.045149979 _17_ RTR  --- 2 undefined 48 [0 ffffffff 1 800] [energy 999.998014 ei 0.001 es 0.000 et 0.000 er 0.000] ------- [1:255 -1:255 32 0] [1 0 [HELLO 1 0 0]]
r 0.045150043 _0_ RTR  --- 2 undefined 48 [0 ffffffff 1 800] [energy 999.997940 ei 0.001 es 0.000 et 0.000 er 0.000] ------- [1:255 -1:255 32 0] [1 0 [HELLO 1 0 0]]
r 0.045150045 _2_ RTR  --- 2 undefined 48 [0 ffffffff 1 800] [energy 999.998014 ei 0.001 es 0.000 et 0.000 er 0.000] ------- [1:255 -1:255 32 0] [1 0 [HELLO 1 0 0]]
r 0.045150059 _9_ RTR  --- 2 undefined 48 [0 ffffffff 1 800] [energy 999.998014 ei 0.001 es 0.000 et 0.000 er 0.000] ------- [1:255 -1:255 32 0] [1 0 [HELLO 1 0 0]]
s 0.045678458 _22_ RTR  --- 3 undefined 48 [0 0 0 0] [energy 999.998014 ei 0.001 es 0.000 et 0.000 er 0.000] ------- [22:255 -1:255 32 0] [1 0 [HELLO 22 0 0]]
s 0.046073458 _22_ MAC  --- 3 undefined 106 [0 ffffffff 16 800] [energy 999.998014 ei 0.001 es 0.000 et 0.000 er 0.000] ------- [22:255 -1:255 32 0] [1 0 [HELLO 22 0 0]]
N -t 0.046074 -n 21 -e 999.997815
N -t 0.046074 -n 19 -e 999.997815
N -t 0.046074 -n 1 -e 999.997741
N -t 0.046074 -n 13 -e 999.997815
N -t 0.046074 -n 9 -e 999.997815
N -t 0.046074 -n 30 -e 999.997741
N -t 0.046074 -n 8 -e 999.997815
N -t 0.046074 -n 11 -e 999.997815
N -t 0.046074 -n 3 -e 999.997815
N -t 0.046075 -n 24 -e 999.997815
N -t 0.046075 -n 2 -e 999.997815
N -t 0.046075 -n 17 -e 999.997815
N -t 0.046075 -n 0 -e 999.997741
N -t 0.046075 -n 7 -e 999.997951
N -t 0.046075 -n 25 -e 999.997815
N -t 0.046075 -n 29 -e 999.997815
N -t 0.046075 -n 28 -e 999.997951
N -t 0.046075 -n 15 -e 999.997951
N -t 0.046075 -n 26 -e 999.997815
N -t 0.046075 -n 12 -e 999.997815
N -t 0.046075 -n 4 -e 999.997951
N -t 0.046075 -n 10 -e 999.997951
N -t 0.046075 -n 27 -e 999.997951
N -t 0.046075 -n 18 -e 999.998222
N -t 0.046075 -n 6 -e 999.997951
r 0.046921636 _21_ MAC  --- 3 undefined 48 [0 ffffffff 16 800] [energy 999.997815 ei 0.002 es 0.000 et 0.000 er 0.001] ------- [22:255 -1:255 32 0] [1 0 [HELLO 22 0 0]]
r 0.046921718 _19_ MAC  --- 3 undefined 48 [0 ffffffff 16 800] [energy 999.997815 ei 0.002 es 0.000 et 0.000 er 0.001] ------- [22:255 -1:255 32 0] [1 0 [HELLO 22 0 0]]
r 0.046921916 _1_ MAC  --- 3 undefined 48 [0 ffffffff 16 800] [energy 999.997741 ei 0.002 es 0.000 et 0.000 er 0.000] ------- [22:255 -1:255 32 0] [1 0 [HELLO 22 0 0]]
r 0.046921966 _13_ MAC  --- 3 undefined 48 [0 ffffffff 16 800] [energy 999.997815 ei 0.002 es 0.000 et 0.000 er 0.001] ------- [22:255 -1:255 32 0] [1 0 [HELLO 22 0 0]]
r 0.046922075 _9_ MAC  --- 3 undefined 48 [0 ffffffff 16 800] [energy 999.997815 ei 0.002 es 0.000 et 0.000 er 0.001] ------- [22:255 -1:255 32 0] [1 0 [HELLO 22 0 0]]
r 0.046922117 _30_ MAC  --- 3 undefined 48 [0 ffffffff 16 800] [energy 999.997741 ei 0.002 es 0.000 et 0.000 er 0.000] ------- [22:255 -1:255 32 0] [1 0 [HELLO 22 0 0]]
r 0.046922215 _8_ MAC  --- 3 undefined 48 [0 ffffffff 16 800] [energy 999.997815 ei 0.002 es 0.000 et 0.000 er 0.001] ------- [22:255 -1:255 32 0] [1 0 [HELLO 22 0 0]]
r 0.046946636 _21_ RTR  --- 3 undefined 48 [0 ffffffff 16 800] [energy 999.997815 ei 0.002 es 0.000 et 0.000 er 0.001] ------- [22:255 -1:255 32 0] [1 0 [HELLO 22 0 0]]
r 0.046946718 _19_ RTR  --- 3 undefined 48 [0 ffffffff 16 800] [energy 999.997815 ei 0.002 es 0.000 et 0.000 er 0.001] ------- [22:255 -1:255 32 0] [1 0 [HELLO 22 0 0]]
r 0.046946916 _1_ RTR  --- 3 undefined 48 [0 ffffffff 16 800] [energy 999.997741 ei 0.002 es 0.000 et 0.000 er 0.000] ------- [22:255 -1:255 32 0] [1 0 [HELLO 22 0 0]]
r 0.046946966 _13_ RTR  --- 3 undefined 48 [0 ffffffff 16 800] [energy 999.997815 ei 0.002 es 0.000 et 0.000 er 0.001] ------- [22:255 -1:255 32 0] [1 0 [HELLO 22 0 0]]
r 0.046947075 _9_ RTR  --- 3 undefined 48 [0 ffffffff 16 800] [energy 999.997815 ei 0.002 es 0.000 et 0.000 er 0.001] ------- [22:255 -1:255 32 0] [1 0 [HELLO 22 0 0]]
r 0.046947117 _30_ RTR  --- 3 undefined 48 [0 ffffffff 16 800] [energy 999.997741 ei 0.002 es 0.000 et 0.000 er 0.000] ------- [22:255 -1:255 32 0] [1 0 [HELLO 22 0 0]]
r 0.046947215 _8_ RTR  --- 3 undefined 48 [0 ffffffff 16 800] [energy 999.997815 ei 0.002 es 0.000 et 0.000 er 0.001] ------- [22:255 -1:255 32 0] [1 0 [HELLO 22 0 0]]
s 0.054599236 _12_ RTR  --- 4 undefined 48 [0 0 0 0] [energy 999.997815 ei 0.002 es 0.000 et 0.000 er 0.001] ------- [12:255 -1:255 32 0] [1 0 [HELLO 12 0 0]]
s 0.055174236 _12_ MAC  --- 4 undefined 106 [0 ffffffff c 800] [energy 999.997815 ei 0.002 es 0.000 et 0.000 er 0.001] ------- [12:255 -1:255 32 0] [1 0 [HELLO 12 0 0]]
N -t 0.055175 -n 17 -e 999.997361
N -t 0.055175 -n 0 -e 999.997287
N -t 0.055175 -n 26 -e 999.997361
N -t 0.055175 -n 2 -e 999.997361
N -t 0.055175 -n 20 -e 999.997632
N -t 0.055175 -n 24 -e 999.997361
N -t 0.055175 -n 29 -e 999.997361
N -t 0.055175 -n 10 -e 999.997496
N -t 0.055175 -n 8 -e 999.997361
N -t 0.055175 -n 11 -e 999.997361
N -t 0.055175 -n 23 -e 999.997632
N -t 0.055175 -n 1 -e 999.997287
N -t 0.055175 -n 27 -e 999.997496
N -t 0.055175 -n 14 -e 999.997632
N -t 0.055175 -n 3 -e 999.997361
N -t 0.055175 -n 19 -e 999.997361
N -t 0.055176 -n 9 -e 999.997361
N -t 0.055176 -n 22 -e 999.997287
N -t 0.055176 -n 30 -e 999.997287
N -t 0.055176 -n 15 -e 999.997496
N -t 0.055176 -n 21 -e 999.997361
N -t 0.055176 -n 4 -e 999.997496
s 0.056015658 _14_ RTR  --- 5 undefined 48 [0 0 0 0] [energy 999.997632 ei 0.002 es 0.000 et 0.000 er 0.000] ------- [14:255 -1:255 32 0] [1 0 [HELLO 14 0 0]]
r 0.056022510 _17_ MAC  --- 4 undefined 48 [0 ffffffff c 800] [energy 999.997361 ei 0.002 es 0.000 et 0.000 er 0.001] ------- [12:255 -1:255 32 0] [1 0 [HELLO 12 0 0]]
r 0.056022617 _0_ MAC  --- 4 undefined 48 [0 ffffffff c 800] [energy 999.997287 ei 0.002 es 0.000 et 0.000 er 0.001] ------- [12:255 -1:255 32 0] [1 0 [HELLO 12 0 0]]
r 0.056022708 _26_ MAC  --- 4 undefined 48 [0 ffffffff c 800] [energy 999.997361 ei 0.002 es 0.000 et 0.000 er 0.001] ------- [12:255 -1:255 32 0] [1 0 [HELLO 12 0 0]]
r 0.056022745 _2_ MAC  --- 4 undefined 48 [0 ffffffff c 800] [energy 999.997361 ei 0.002 es 0.000 et 0.000 er 0.001] ------- [12:255 -1:255 32 0] [1 0 [HELLO 12 0 0]]
r 0.056022868 _20_ MAC  --- 4 undefined 48 [0 ffffffff c 800] [energy 999.997632 ei 0.002 es 0.000 et 0.000 er 0.000] ------- [12:255 -1:255 32 0] [1 0 [HELLO 12 0 0]]
r 0.056022875 _24_ MAC  --- 4 undefined 48 [0 ffffffff c 800] [energy 999.997361 ei 0.002 es 0.000 et 0.000 er 0.001] ------- [12:255 -1:255 32 0] [1 0 [HELLO 12 0 0]]
r 0.056022927 _29_ MAC  --- 4 undefined 48 [0 ffffffff c 800] [energy 999.997361 ei 0.002 es 0.000 et 0.000 er 0.001] ------- [12:255 -1:255 32 0] [1 0 [HELLO 12 0 0]]
r 0.056022970 _10_ MAC  --- 4 undefined 48 [0 ffffffff c 800] [energy 999.997496 ei 0.002 es 0.000 et 0.000 er 0.001] ------- [12:255 -1:255 32 0] [1 0 [HELLO 12 0 0]]
r 0.056022982 _8_ MAC  --- 4 undefined 48 [0 ffffffff c 800] [energy 999.997361 ei 0.002 es 0.000 et 0.000 er 0.001] ------- [12:255 -1:255 32 0] [1 0 [HELLO 12 0 0]]
r 0.056022985 _11_ MAC  --- 4 undefined 48 [0 ffffffff c 800] [energy 999.997361 ei 0.002 es 0.000 et 0.000 er 0.001] ------- [12:255 -1:255 32 0] [1 0 [HELLO 12 0 0]]
r 0.056047510 _17_ RTR  --- 4 undefined 48 [0 ffffffff c 800] [energy 999.997361 ei 0.002 es 0.000 et 0.000 er 0.001] ------- [12:255 -1:255 32 0] [1 0 [HELLO 12 0 0]]
r 0.056047617 _0_ RTR  --- 4 undefined 48 [0 ffffffff c 800] [energy 999.997287 ei 0.002 es 0.000 et 0.000 er 0.001] ------- [12:255 -1:255 32 0] [1 0 [HELLO 12 0 0]]
r 0.056047708 _26_ RTR  --- 4 undefined 48 [0 ffffffff c 800] [energy 999.997361 ei 0.002 es 0.000 et 0.000 er 0.001] ------- [12:255 -1:255 32 0] [1 0 [HELLO 12 0 0]]
r 0.056047745 _2_ RTR  --- 4 undefined 48 [0 ffffffff c 800] [energy 999.997361 ei 0.002 es 0.000 et 0.000 er 0.001] ------- [12:255 -1:255 32 0] [1 0 [HELLO 12 0 0]]
r 0.056047868 _20_ RTR  --- 4 undefined 48 [0 ffffffff c 800] [energy 999.997632 ei 0.002 es 0.000 et 0.000 er 0.000] ------- [12:255 -1:255 32 0] [1 0 [HELLO 12 0 0]]
r 0.056047875 _24_ RTR  --- 4 undefined 48 [0 ffffffff c 800] [energy 999.997361 ei 0.002 es 0.000 et 0.000 er 0.001] ------- [12:255 -1:255 32 0] [1 0 [HELLO 12 0 0]]
r 0.056047927 _29_ RTR  --- 4 undefined 48 [0 ffffffff c 800] [energy 999.997361 ei 0.002 es 0.000 et 0.000 er 0.001] ------- [12:255 -1:255 32 0] [1 0 [HELLO 12 0 0]]
r 0.056047970 _10_ RTR  --- 4 undefined 48 [0 ffffffff c 800] [energy 999.997496 ei 0.002 es 0.000 et 0.000 er 0.001] ------- [12:255 -1:255 32 0] [1 0 [HELLO 12 0 0]]
r 0.056047982 _8_ RTR  --- 4 undefined 48 [0 ffffffff c 800] [energy 999.997361 ei 0.002 es 0.000 et 0.000 er 0.001] ------- [12:255 -1:255 32 0] [1 0 [HELLO 12 0 0]]
r 0.056047985 _11_ RTR  --- 4 undefined 48 [0 ffffffff c 800] [energy 999.997361 ei 0.002 es 0.000 et 0.000 er 0.001] ------- [12:255 -1:255 32 0] [1 0 [HELLO 12 0 0]]
s 0.056597282 _14_ MAC  --- 5 undefined 106 [0 ffffffff e 800] [energy 999.997632 ei 0.002 es 0.000 et 0.000 er 0.000] ------- [14:255 -1:255 32 0] [1 0 [HELLO 14 0 0]]
N -t 0.056598 -n 23 -e 999.997447
N -t 0.056598 -n 10 -e 999.997311
N -t 0.056598 -n 20 -e 999.997447
N -t 0.056598 -n 27 -e 999.997311
N -t 0.056598 -n 26 -e 999.997175
N -t 0.056598 -n 29 -e 999.997175
N -t 0.056598 -n 12 -e 999.997102
N -t 0.056598 -n 0 -e 999.997102
N -t 0.056598 -n 2 -e 999.997175
N -t 0.056598 -n 16 -e 999.997718
N -t 0.056599 -n 17 -e 999.997175
N -t 0.056599 -n 8 -e 999.997175
N -t 0.056599 -n 3 -e 999.997175
N -t 0.056599 -n 4 -e 999.997311
N -t 0.056599 -n 15 -e 999.997311
N -t 0.056599 -n 24 -e 999.997175
N -t 0.056599 -n 11 -e 999.997175
N -t 0.056599 -n 1 -e 999.997102
N -t 0.056599 -n 5 -e 999.997854
s 0.056904124 _5_ RTR  --- 6 undefined 48 [0 0 0 0] [energy 999.997854 ei 0.002 es 0.000 et 0.000 er 0.000] ------- [5:255 -1:255 32 0] [1 0 [HELLO 5 0 0]]
r 0.057445720 _23_ MAC  --- 5 undefined 48 [0 ffffffff e 800] [energy 999.997447 ei 0.002 es 0.000 et 0.000 er 0.001] ------- [14:255 -1:255 32 0] [1 0 [HELLO 14 0 0]]
r 0.057445886 _10_ MAC  --- 5 undefined 48 [0 ffffffff e 800] [energy 999.997311 ei 0.002 es 0.000 et 0.000 er 0.001] ------- [14:255 -1:255 32 0] [1 0 [HELLO 14 0 0]]
r 0.057445887 _20_ MAC  --- 5 undefined 48 [0 ffffffff e 800] [energy 999.997447 ei 0.002 es 0.000 et 0.000 er 0.001] ------- [14:255 -1:255 32 0] [1 0 [HELLO 14 0 0]]
r 0.057446028 _27_ MAC  --- 5 undefined 48 [0 ffffffff e 800] [energy 999.997311 ei 0.002 es 0.000 et 0.000 er 0.001] ------- [14:255 -1:255 32 0] [1 0 [HELLO 14 0 0]]
r 0.057470720 _23_ RTR  --- 5 undefined 48 [0 ffffffff e 800] [energy 999.997447 ei 0.002 es 0.000 et 0.000 er 0.001] ------- [14:255 -1:255 32 0] [1 0 [HELLO 14 0 0]]
r 0.057470886 _10_ RTR  --- 5 undefined 48 [0 ffffffff e 800] [energy 999.997311 ei 0.002 es 0.000 et 0.000 er 0.001] ------- [14:255 -1:255 32 0] [1 0 [HELLO 14 0 0]]
r 0.057470887 _20_ RTR  --- 5 undefined 48 [0 ffffffff e 800] [energy 999.997447 ei 0.002 es 0.000 et 0.000 er 0.001] ------- [14:255 -1:255 32 0] [1 0 [HELLO 14 0 0]]
r 0.057471028 _27_ RTR  --- 5 undefined 48 [0 ffffffff e 800] [energy 999.997311 ei 0.002 es 0.000 et 0.000 er 0.001] ------- [14:255 -1:255 32 0] [1 0 [HELLO 14 0 0]]
s 0.057881102 _5_ MAC  --- 6 undefined 106 [0 ffffffff 5 800] [energy 999.997854 ei 0.002 es 0.000 et 0.000 er 0.000] ------- [5:255 -1:255 32 0] [1 0 [HELLO 5 0 0]]
N -t 0.057881 -n 31 -e 999.997809
N -t 0.057882 -n 16 -e 999.997537
N -t 0.057882 -n 4 -e 999.997130
N -t 0.057882 -n 6 -e 999.997402
N -t 0.057882 -n 15 -e 999.997130
N -t 0.057883 -n 27 -e 999.997130
N -t 0.057883 -n 10 -e 999.997130
N -t 0.057883 -n 18 -e 999.997673
N -t 0.057883 -n 3 -e 999.996995
N -t 0.057883 -n 29 -e 999.996995
N -t 0.057883 -n 14 -e 999.997192
r 0.058729256 _31_ MAC  --- 6 undefined 48 [0 ffffffff 5 800] [energy 999.997809 ei 0.002 es 0.000 et 0.000 er 0.000] ------- [5:255 -1:255 32 0] [1 0 [HELLO 5 0 0]]
r 0.058729730 _16_ MAC  --- 6 undefined 48 [0 ffffffff 5 800] [energy 999.997537 ei 0.002 es 0.000 et 0.000 er 0.000] ------- [5:255 -1:255 32 0] [1 0 [HELLO 5 0 0]]
r 0.058754256 _31_ RTR  --- 6 undefined 48 [0 ffffffff 5 800] [energy 999.997809 ei 0.002 es 0.000 et 0.000 er 0.000] ------- [5:255 -1:255 32 0] [1 0 [HELLO 5 0 0]]
r 0.058754730 _16_ RTR  --- 6 undefined 48 [0 ffffffff 5 800] [energy 999.997537 ei 0.002 es 0.000 et 0.000 er 0.000] ------- [5:255 -1:255 32 0] [1 0 [HELLO 5 0 0]]
s 0.082072703 _4_ RTR  --- 7 undefined 48 [0 0 0 0] [energy 999.997130 ei 0.002 es 0.000 et 0.000 er 0.001] ------- [4:255 -1:255 32 0] [1 0 [HELLO 4 0 0]]
s 0.082147703 _4_ MAC  --- 7 undefined 106 [0 ffffffff 4 800] [energy 999.997130 ei 0.002 es 0.000 et 0.000 er 0.001] ------- [4:255 -1:255 32 0] [1 0 [HELLO 4 0 0]]
N -t 0.082148 -n 15 -e 999.996145
N -t 0.082148 -n 6 -e 999.996417
N -t 0.082148 -n 3 -e 999.996010
N -t 0.082149 -n 27 -e 999.996145
N -t 0.082149 -n 16 -e 999.996552
N -t 0.082149 -n 29 -e 999.996010
N -t 0.082149 -n 25 -e 999.996417
N -t 0.082149 -n 9 -e 999.996281
N -t 0.082149 -n 28 -e 999.996552
N -t 0.082149 -n 5 -e 999.996614
N -t 0.082149 -n 31 -e 999.996824
N -t 0.082149 -n 10 -e 999.996145
N -t 0.082149 -n 18 -e 999.996688
N -t 0.082149 -n 8 -e 999.996145
N -t 0.082149 -n 2 -e 999.996145
N -t 0.082149 -n 26 -e 999.996145
N -t 0.082149 -n 0 -e 999.996072
N -t 0.082149 -n 17 -e 999.996145
N -t 0.082149 -n 1 -e 999.996072
N -t 0.082149 -n 14 -e 999.996207
N -t 0.082149 -n 22 -e 999.996207
N -t 0.082149 -n 21 -e 999.996281
N -t 0.082149 -n 12 -e 999.996072
N -t 0.082149 -n 19 -e 999.996281
N -t 0.082149 -n 7 -e 999.996552
N -t 0.082149 -n 13 -e 999.996417
N -t 0.082150 -n 20 -e 999.996417
r 0.082995955 _15_ MAC  --- 7 undefined 48 [0 ffffffff 4 800] [energy 999.996145 ei 0.003 es 0.000 et 0.000 er 0.001] ------- [4:255 -1:255 32 0] [1 0 [HELLO 4 0 0]]
r 0.082996140 _6_ MAC  --- 7 undefined 48 [0 ffffffff 4 800] [energy 999.996417 ei 0.003 es 0.000 et 0.000 er 0.001] ------- [4:255 -1:255 32 0] [1 0 [HELLO 4 0 0]]
r 0.082996412 _3_ MAC  --- 7 undefined 48 [0 ffffffff 4 800] [energy 999.996010 ei 0.003 es 0.000 et 0.000 er 0.001] ------- [4:255 -1:255 32 0] [1 0 [HELLO 4 0 0]]
r 0.083020955 _15_ RTR  --- 7 undefined 48 [0 ffffffff 4 800] [energy 999.996145 ei 0.003 es 0.000 et 0.000 er 0.001] ------- [4:255 -1:255 32 0] [1 0 [HELLO 4 0 0]]
r 0.083021140 _6_ RTR  --- 7 undefined 48 [0 ffffffff 4 800] [energy 999.996417 ei 0.003 es 0.000 et 0.000 er 0.001] ------- [4:255 -1:255 32 0] [1 0 [HELLO 4 0 0]]
r 0.083021412 _3_ RTR  --- 7 undefined 48 [0 ffffffff 4 800] [energy 999.996010 ei 0.003 es 0.000 et 0.000 er 0.001] ------- [4:255 -1:255 32 0] [1 0 [HELLO 4 0 0]]
s 0.087402627 _6_ RTR  --- 8 undefined 48 [0 0 0 0] [energy 999.996417 ei 0.003 es 0.000 et 0.000 er 0.001] ------- [6:255 -1:255 32 0] [1 0 [HELLO 6 0 0]]
s 0.087997627 _6_ MAC  --- 8 undefined 106 [0 ffffffff 6 800] [energy 999.996417 ei 0.003 es 0.000 et 0.000 er 0.001] ------- [6:255 -1:255 32 0] [1 0 [HELLO 6 0 0]]
N -t 0.087998 -n 4 -e 999.995731
N -t 0.087998 -n 15 -e 999.995805
N -t 0.087998 -n 18 -e 999.996348
N -t 0.087998 -n 28 -e 999.996212
N -t 0.087998 -n 25 -e 999.996076
N -t 0.087999 -n 3 -e 999.995669
N -t 0.087999 -n 31 -e 999.996483
N -t 0.087999 -n 5 -e 999.996274
N -t 0.087999 -n 9 -e 999.995941
N -t 0.087999 -n 16 -e 999.996212
N -t 0.087999 -n 27 -e 999.995805
N -t 0.087999 -n 29 -e 999.995669
N -t 0.087999 -n 8 -e 999.995805
N -t 0.087999 -n 7 -e 999.996212
N -t 0.087999 -n 10 -e 999.995805
N -t 0.087999 -n 2 -e 999.995805
N -t 0.087999 -n 26 -e 999.995805
N -t 0.087999 -n 0 -e 999.995731
N -t 0.087999 -n 22 -e 999.995867
N -t 0.087999 -n 21 -e 999.995941
N -t 0.087999 -n 13 -e 999.996076
N -t 0.087999 -n 1 -e 999.995731
r 0.088846063 _4_ MAC  --- 8 undefined 48 [0 ffffffff 6 800] [energy 999.995731 ei 0.003 es 0.000 et 0.000 er 0.001] ------- [6:255 -1:255 32 0] [1 0 [HELLO 6 0 0]]