n -t * -s 0  -x 100 -y 100 -Z 0 -z 20  -v circle -c green
n -t * -s 1  -x 100 -y 300 -Z 0 -z 20  -v circle -c green
n -t * -s 2  -x 100 -y 500 -Z 0 -z 20  -v circle -c green
n -t * -s 3  -x 175 -y 200 -Z 0 -z 20  -v circle -c green
n -t * -s 4  -x 175 -y 400 -Z 0 -z 20  -v circle -c green
n -t * -s 5  -x 175 -y 600 -Z 0 -z 20  -v circle -c green
n -t * -s 6  -x 250 -y 100 -Z 0 -z 20  -v circle -c green
n -t * -s 7  -x 250 -y 300 -Z 0 -z 20  -v circle -c green
n -t * -s 8  -x 250 -y 500 -Z 0 -z 20  -v circle -c green
n -t * -s 9  -x 325 -y 200 -Z 0 -z 20  -v circle -c green
n -t * -s 10  -x 325 -y 400 -Z 0 -z 20  -v circle -c green
n -t * -s 11  -x 325 -y 600 -Z 0 -z 20  -v circle -c green
n -t * -s 12  -x 400 -y 100 -Z 0 -z 20  -v circle -c green
n -t * -s 13  -x 400 -y 300 -Z 0 -z 20  -v circle -c green
n -t * -s 14  -x 400 -y 500 -Z 0 -z 20  -v circle -c green
n -t * -s 15  -x 475 -y 200 -Z 0 -z 20  -v circle -c green
n -t * -s 16  -x 475 -y 400 -Z 0 -z 20  -v circle -c green
n -t * -s 17  -x 475 -y 600 -Z 0 -z 20  -v circle -c green
n -t * -s 18  -x 550 -y 100 -Z 0 -z 20  -v circle -c green
n -t * -s 19  -x 550 -y 300 -Z 0 -z 20  -v circle -c green
n -t * -s 20  -x 550 -y 500 -Z 0 -z 20  -v circle -c green
n -t * -s 21  -x 625 -y 200 -Z 0 -z 20  -v circle -c green
n -t * -s 22  -x 625 -y 400 -Z 0 -z 20  -v circle -c green
n -t * -s 23  -x 625 -y 600 -Z 0 -z 20  -v circle -c green
n -t * -s 24  -x 700 -y 100 -Z 0 -z 20  -v circle -c green
n -t * -s 25  -x 700 -y 300 -Z 0 -z 20  -v circle -c green
n -t * -s 26  -x 700 -y 500 -Z 0 -z 20  -v circle -c green
n -t * -s 27  -x 400 -y 400 -Z 0 -z 20  -v circle -c green
V -t * -v 1.0a5 -a 0
W -t * -x 800 -y 800
A -t * -n 1 -p 0 -o 0xffffffff -c 31 -a 1
A -t * -h 1 -m 2147483647 -s 0
+ -t 0.000169789 -s 0 -d -1 -p BellLabsTrace -e 48 -c 2 -a 0 -i 0 -k RTR 
- -t 0.000169789 -s 0 -d -1 -p BellLabsTrace -e 48 -c 2 -a 0 -i 0 -k RTR
h -t 0.000169789 -s 0 -d -1 -p BellLabsTrace -e 48 -c 2 -a 0 -i 0 -k RTR
+ -t 0.000784789 -s 0 -d -1 -p BellLabsTrace -e 106 -c 2 -a 0 -i 0 -k MAC 
- -t 0.000784789 -s 0 -d -1 -p BellLabsTrace -e 106 -c 2 -a 0 -i 0 -k MAC
h -t 0.000784789 -s 0 -d -1 -p BellLabsTrace -e 106 -c 2 -a 0 -i 0 -k MAC
r -t 0.001633205 -s 3 -d -1 -p BellLabsTrace -e 48 -c 2 -a 0 -i 0 -k MAC
r -t 0.001633289 -s 6 -d -1 -p BellLabsTrace -e 48 -c 2 -a 0 -i 0 -k MAC
r -t 0.001633455 -s 1 -d -1 -p BellLabsTrace -e 48 -c 2 -a 0 -i 0 -k MAC
r -t 0.001633609 -s 9 -d -1 -p BellLabsTrace -e 48 -c 2 -a 0 -i 0 -k MAC
r -t 0.001658205 -s 3 -d -1 -p BellLabsTrace -e 48 -c 2 -a 0 -i 0 -k RTR
r -t 0.001658289 -s 6 -d -1 -p BellLabsTrace -e 48 -c 2 -a 0 -i 0 -k RTR
r -t 0.001658455 -s 1 -d -1 -p BellLabsTrace -e 48 -c 2 -a 0 -i 0 -k RTR
r -t 0.001658609 -s 9 -d -1 -p BellLabsTrace -e 48 -c 2 -a 0 -i 0 -k RTR
+ -t 0.044061336 -s 1 -d -1 -p BellLabsTrace -e 48 -c 2 -a 0 -i 1 -k RTR 
- -t 0.044061336 -s 1 -d -1 -p BellLabsTrace -e 48 -c 2 -a 0 -i 1 -k RTR
h -t 0.044061336 -s 1 -d -1 -p BellLabsTrace -e 48 -c 2 -a 0 -i 1 -k RTR
+ -t 0.044436336 -s 1 -d -1 -p BellLabsTrace -e 106 -c 2 -a 0 -i 1 -k MAC 
- -t 0.044436336 -s 1 -d -1 -p BellLabsTrace -e 106 -c 2 -a 0 -i 1 -k MAC
h -t 0.044436336 -s 1 -d -1 -p BellLabsTrace -e 106 -c 2 -a 0 -i 1 -k MAC
r -t 0.045284752 -s 3 -d -1 -p BellLabsTrace -e 48 -c 2 -a 0 -i 1 -k MAC
r -t 0.045284752 -s 4 -d -1 -p BellLabsTrace -e 48 -c 2 -a 0 -i 1 -k MAC
r -t 0.045284836 -s 7 -d -1 -p BellLabsTrace -e 48 -c 2 -a 0 -i 1 -k MAC
r -t 0.045285002 -s 0 -d -1 -p BellLabsTrace -e 48 -c 2 -a 0 -i 1 -k MAC
r -t 0.045285002 -s 2 -d -1 -p BellLabsTrace -e 48 -c 2 -a 0 -i 1 -k MAC
r -t 0.045285156 -s 9 -d -1 -p BellLabsTrace -e 48 -c 2 -a 0 -i 1 -k MAC
r -t 0.045285156 -s 10 -d -1 -p BellLabsTrace -e 48 -c 2 -a 0 -i 1 -k MAC
r -t 0.045309752 -s 3 -d -1 -p BellLabsTrace -e 48 -c 2 -a 0 -i 1 -k RTR
r -t 0.045309752 -s 4 -d -1 -p BellLabsTrace -e 48 -c 2 -a 0 -i 1 -k RTR
r -t 0.045309836 -s 7 -d -1 -p BellLabsTrace -e 48 -c 2 -a 0 -i 1 -k RTR
r -t 0.045310002 -s 0 -d -1 -p BellLabsTrace -e 48 -c 2 -a 0 -i 1 -k RTR
r -t 0.045310002 -s 2 -d -1 -p BellLabsTrace -e 48 -c 2 -a 0 -i 1 -k RTR
r -t 0.045310156 -s 9 -d -1 -p BellLabsTrace -e 48 -c 2 -a 0 -i 1 -k RTR
r -t 0.045310156 -s 10 -d -1 -p BellLabsTrace -e 48 -c 2 -a 0 -i 1 -k RTR
+ -t 0.045678458 -s 22 -d -1 -p BellLabsTrace -e 48 -c 2 -a 0 -i 2 -k RTR 
- -t 0.045678458 -s 22 -d -1 -p BellLabsTrace -e 48 -c 2 -a 0 -i 2 -k RTR
h -t 0.045678458 -s 22 -d -1 -p BellLabsTrace -e 48 -c 2 -a 0 -i 2 -k RTR
+ -t 0.046093458 -s 22 -d -1 -p BellLabsTrace -e 106 -c 2 -a 0 -i 2 -k MAC 
- -t 0.046093458 -s 22 -d -1 -p BellLabsTrace -e 106 -c 2 -a 0 -i 2 -k MAC
h -t 0.046093458 -s 22 -d -1 -p BellLabsTrace -e 106 -c 2 -a 0 -i 2 -k MAC
r -t 0.046941875 -s 20 -d -1 -p BellLabsTrace -e 48 -c 2 -a 0 -i 2 -k MAC
r -t 0.046941875 -s 19 -d -1 -p BellLabsTrace -e 48 -c 2 -a 0 -i 2 -k MAC
r -t 0.046941875 -s 25 -d -1 -p BellLabsTrace -e 48 -c 2 -a 0 -i 2 -k MAC
r -t 0.046941875 -s 26 -d -1 -p BellLabsTrace -e 48 -c 2 -a 0 -i 2 -k MAC
r -t 0.046941958 -s 16 -d -1 -p BellLabsTrace -e 48 -c 2 -a 0 -i 2 -k MAC
r -t 0.046942125 -s 21 -d -1 -p BellLabsTrace -e 48 -c 2 -a 0 -i 2 -k MAC
r -t 0.046942125 -s 23 -d -1 -p BellLabsTrace -e 48 -c 2 -a 0 -i 2 -k MAC
r -t 0.046942208 -s 27 -d -1 -p BellLabsTrace -e 48 -c 2 -a 0 -i 2 -k MAC
r -t 0.046942279 -s 14 -d -1 -p BellLabsTrace -e 48 -c 2 -a 0 -i 2 -k MAC
r -t 0.046942279 -s 13 -d -1 -p BellLabsTrace -e 48 -c 2 -a 0 -i 2 -k MAC
r -t 0.046966875 -s 20 -d -1 -p BellLabsTrace -e 48 -c 2 -a 0 -i 2 -k RTR
r -t 0.046966875 -s 19 -d -1 -p BellLabsTrace -e 48 -c 2 -a 0 -i 2 -k RTR
r -t 0.046966875 -s 25 -d -1 -p BellLabsTrace -e 48 -c 2 -a 0 -i 2 -k RTR
r -t 0.046966875 -s 26 -d -1 -p BellLabsTrace -e 48 -c 2 -a 0 -i 2 -k RTR
r -t 0.046966958 -s 16 -d -1 -p BellLabsTrace -e 48 -c 2 -a 0 -i 2 -k RTR
r -t 0.046967125 -s 21 -d -1 -p BellLabsTrace -e 48 -c 2 -a 0 -i 2 -k RTR
r -t 0.046967125 -s 23 -d -1 -p BellLabsTrace -e 48 -c 2 -a 0 -i 2 -k RTR
r -t 0.046967208 -s 27 -d -1 -p BellLabsTrace -e 48 -c 2 -a 0 -i 2 -k RTR
r -t 0.046967279 -s 14 -d -1 -p BellLabsTrace -e 48 -c 2 -a 0 -i 2 -k RTR
r -t 0.046967279 -s 13 -d -1 -p BellLabsTrace -e 48 -c 2 -a 0 -i 2 -k RTR
+ -t 0.054599236 -s 12 -d -1 -p BellLabsTrace -e 48 -c 2 -a 0 -i 3 -k RTR 
- -t 0.054599236 -s 12 -d -1 -p BellLabsTrace -e 48 -c 2 -a 0 -i 3 -k RTR
h -t 0.054599236 -s 12 -d -1 -p BellLabsTrace -e 48 -c 2 -a 0 -i 3 -k RTR
+ -t 0.055254236 -s 12 -d -1 -p BellLabsTrace -e 106 -c 2 -a 0 -i 3 -k MAC 
- -t 0.055254236 -s 12 -d -1 -p BellLabsTrace -e 106 -c 2 -a 0 -i 3 -k MAC
h -t 0.055254236 -s 12 -d -1 -p BellLabsTrace -e 106 -c 2 -a 0 -i 3 -k MAC
+ -t 0.056015658 -s 14 -d -1 -p BellLabsTrace -e 48 -c 2 -a 0 -i 4 -k RTR 
- -t 0.056015658 -s 14 -d -1 -p BellLabsTrace -e 48 -c 2 -a 0 -i 4 -k RTR
h -t 0.056015658 -s 14 -d -1 -p BellLabsTrace -e 48 -c 2 -a 0 -i 4 -k RTR
r -t 0.056102653 -s 9 -d -1 -p BellLabsTrace -e 48 -c 2 -a 0 -i 3 -k MAC
r -t 0.056102653 -s 15 -d -1 -p BellLabsTrace -e 48 -c 2 -a 0 -i 3 -k MAC
r -t 0.056102736 -s 6 -d -1 -p BellLabsTrace -e 48 -c 2 -a 0 -i 3 -k MAC
r -t 0.056102736 -s 18 -d -1 -p BellLabsTrace -e 48 -c 2 -a 0 -i 3 -k MAC
r -t 0.056102903 -s 13 -d -1 -p BellLabsTrace -e 48 -c 2 -a 0 -i 3 -k MAC
r -t 0.056103057 -s 3 -d -1 -p BellLabsTrace -e 48 -c 2 -a 0 -i 3 -k MAC
r -t 0.056103057 -s 21 -d -1 -p BellLabsTrace -e 48 -c 2 -a 0 -i 3 -k MAC
r -t 0.056127653 -s 9 -d -1 -p BellLabsTrace -e 48 -c 2 -a 0 -i 3 -k RTR
r -t 0.056127653 -s 15 -d -1 -p BellLabsTrace -e 48 -c 2 -a 0 -i 3 -k RTR
r -t 0.056127736 -s 6 -d -1 -p BellLabsTrace -e 48 -c 2 -a 0 -i 3 -k RTR
r -t 0.056127736 -s 18 -d -1 -p BellLabsTrace -e 48 -c 2 -a 0 -i 3 -k RTR
r -t 0.056127903 -s 13 -d -1 -p BellLabsTrace -e 48 -c 2 -a 0 -i 3 -k RTR
r -t 0.056128057 -s 3 -d -1 -p BellLabsTrace -e 48 -c 2 -a 0 -i 3 -k RTR
r -t 0.056128057 -s 21 -d -1 -p BellLabsTrace -e 48 -c 2 -a 0 -i 3 -k RTR
+ -t 0.056737569 -s 14 -d -1 -p BellLabsTrace -e 106 -c 2 -a 0 -i 4 -k MAC 
- -t 0.056737569 -s 14 -d -1 -p BellLabsTrace -e 106 -c 2 -a 0 -i 4 -k MAC
h -t 0.056737569 -s 14 -d -1 -p BellLabsTrace -e 106 -c 2 -a 0 -i 4 -k MAC
+ -t 0.056904124 -s 5 -d -1 -p BellLabsTrace -e 48 -c 2 -a 0 -i 5 -k RTR 
- -t 0.056904124 -s 5 -d -1 -p BellLabsTrace -e 48 -c 2 -a 0 -i 5 -k RTR
h -t 0.056904124 -s 5 -d -1 -p BellLabsTrace -e 48 -c 2 -a 0 -i 5 -k RTR
r -t 0.057585903 -s 27 -d -1 -p BellLabsTrace -e 48 -c 2 -a 0 -i 4 -k MAC
r -t 0.057585986 -s 11 -d -1 -p BellLabsTrace -e 48 -c 2 -a 0 -i 4 -k MAC
r -t 0.057585986 -s 10 -d -1 -p BellLabsTrace -e 48 -c 2 -a 0 -i 4 -k MAC
r -t 0.057585986 -s 16 -d -1 -p BellLabsTrace -e 48 -c 2 -a 0 -i 4 -k MAC
r -t 0.057585986 -s 17 -d -1 -p BellLabsTrace -e 48 -c 2 -a 0 -i 4 -k MAC
r -t 0.057586069 -s 8 -d -1 -p BellLabsTrace -e 48 -c 2 -a 0 -i 4 -k MAC
r -t 0.057586069 -s 20 -d -1 -p BellLabsTrace -e 48 -c 2 -a 0 -i 4 -k MAC
r -t 0.057586236 -s 13 -d -1 -p BellLabsTrace -e 48 -c 2 -a 0 -i 4 -k MAC
r -t 0.057586390 -s 5 -d -1 -p BellLabsTrace -e 48 -c 2 -a 0 -i 4 -k MAC
r -t 0.057586390 -s 4 -d -1 -p BellLabsTrace -e 48 -c 2 -a 0 -i 4 -k MAC
r -t 0.057586390 -s 22 -d -1 -p BellLabsTrace -e 48 -c 2 -a 0 -i 4 -k MAC
r -t 0.057586390 -s 23 -d -1 -p BellLabsTrace -e 48 -c 2 -a 0 -i 4 -k MAC
r -t 0.057610903 -s 27 -d -1 -p BellLabsTrace -e 48 -c 2 -a 0 -i 4 -k RTR
r -t 0.057610986 -s 11 -d -1 -p BellLabsTrace -e 48 -c 2 -a 0 -i 4 -k RTR
r -t 0.057610986 -s 10 -d -1 -p BellLabsTrace -e 48 -c 2 -a 0 -i 4 -k RTR
r -t 0.057610986 -s 16 -d -1 -p BellLabsTrace -e 48 -c 2 -a 0 -i 4 -k RTR
r -t 0.057610986 -s 17 -d -1 -p BellLabsTrace -e 48 -c 2 -a 0 -i 4 -k RTR
r -t 0.057611069 -s 8 -d -1 -p BellLabsTrace -e 48 -c 2 -a 0 -i 4 -k RTR
r -t 0.057611069 -s 20 -d -1 -p BellLabsTrace -e 48 -c 2 -a 0 -i 4 -k RTR
r -t 0.057611236 -s 13 -d -1 -p BellLabsTrace -e 48 -c 2 -a 0 -i 4 -k RTR
r -t 0.057611390 -s 5 -d -1 -p BellLabsTrace -e 48 -c 2 -a 0 -i 4 -k RTR
r -t 0.057611390 -s 4 -d -1 -p BellLabsTrace -e 48 -c 2 -a 0 -i 4 -k RTR
r -t 0.057611390 -s 22 -d -1 -p BellLabsTrace -e 48 -c 2 -a 0 -i 4 -k RTR
r -t 0.057611390 -s 23 -d -1 -p BellLabsTrace -e 48 -c 2 -a 0 -i 4 -k RTR
+ -t 0.057796390 -s 5 -d -1 -p BellLabsTrace -e 106 -c 2 -a 0 -i 5 -k MAC 
- -t 0.057796390 -s 5 -d -1 -p BellLabsTrace -e 106 -c 2 -a 0 -i 5 -k MAC
h -t 0.057796390 -s 5 -d -1 -p BellLabsTrace -e 106 -c 2 -a 0 -i 5 -k MAC
r -t 0.058644807 -s 2 -d -1 -p BellLabsTrace -e 48 -c 2 -a 0 -i 5 -k MAC
r -t 0.058644807 -s 8 -d -1 -p BellLabsTrace -e 48 -c 2 -a 0 -i 5 -k MAC
r -t 0.058644890 -s 11 -d -1 -p BellLabsTrace -e 48 -c 2 -a 0 -i 5 -k MAC
r -t 0.058645057 -s 4 -d -1 -p BellLabsTrace -e 48 -c 2 -a 0 -i 5 -k MAC
r -t 0.058645211 -s 14 -d -1 -p BellLabsTrace -e 48 -c 2 -a 0 -i 5 -k MAC
r -t 0.058669807 -s 2 -d -1 -p BellLabsTrace -e 48 -c 2 -a 0 -i 5 -k RTR
r -t 0.058669807 -s 8 -d -1 -p BellLabsTrace -e 48 -c 2 -a 0 -i 5 -k RTR
r -t 0.058669890 -s 11 -d -1 -p BellLabsTrace -e 48 -c 2 -a 0 -i 5 -k RTR
r -t 0.058670057 -s 4 -d -1 -p BellLabsTrace -e 48 -c 2 -a 0 -i 5 -k RTR
r -t 0.058670211 -s 14 -d -1 -p BellLabsTrace -e 48 -c 2 -a 0 -i 5 -k RTR
+ -t 0.082072703 -s 4 -d -1 -p BellLabsTrace -e 48 -c 2 -a 0 -i 6 -k RTR 
- -t 0.082072703 -s 4 -d -1 -p BellLabsTrace -e 48 -c 2 -a 0 -i 6 -k RTR
h -t 0.082072703 -s 4 -d -1 -p BellLabsTrace -e 48 -c 2 -a 0 -i 6 -k RTR
+ -t 0.082267703 -s 4 -d -1 -p BellLabsTrace -e 106 -c 2 -a 0 -i 6 -k MAC 
- -t 0.082267703 -s 4 -d -1 -p BellLabsTrace -e 106 -c 2 -a 0 -i 6 -k MAC
h -t 0.082267703 -s 4 -d -1 -p BellLabsTrace -e 106 -c 2 -a 0 -i 6 -k MAC
r -t 0.083116120 -s 2 -d -1 -p BellLabsTrace -e 48 -c 2 -a 0 -i 6 -k MAC
r -t 0.083116120 -s 1 -d -1 -p BellLabsTrace -e 48 -c 2 -a 0 -i 6 -k MAC
r -t 0.083116120 -s 7 -d -1 -p BellLabsTrace -e 48 -c 2 -a 0 -i 6 -k MAC
r -t 0.083116120 -s 8 -d -1 -p BellLabsTrace -e 48 -c 2 -a 0 -i 6 -k MAC
r -t 0.083116203 -s 10 -d -1 -p BellLabsTrace -e 48 -c 2 -a 0 -i 6 -k MAC
r -t 0.083116370 -s 3 -d -1 -p BellLabsTrace -e 48 -c 2 -a 0 -i 6 -k MAC
r -t 0.083116370 -s 5 -d -1 -p BellLabsTrace -e 48 -c 2 -a 0 -i 6 -k MAC
r -t 0.083116453 -s 27 -d -1 -p BellLabsTrace -e 48 -c 2 -a 0 -i 6 -k MAC
r -t 0.083116524 -s 13 -d -1 -p BellLabsTrace -e 48 -c 2 -a 0 -i 6 -k MAC
r -t 0.083116524 -s 14 -d -1 -p BellLabsTrace -e 48 -c 2 -a 0 -i 6 -k MAC
r -t 0.083141120 -s 2 -d -1 -p BellLabsTrace -e 48 -c 2 -a 0 -i 6 -k RTR
r -t 0.083141120 -s 1 -d -1 -p BellLabsTrace -e 48 -c 2 -a 0 -i 6 -k RTR
r -t 0.083141120 -s 7 -d -1 -p BellLabsTrace -e 48 -c 2 -a 0 -i 6 -k RTR
r -t 0.083141120 -s 8 -d -1 -p BellLabsTrace -e 48 -c 2 -a 0 -i 6 -k RTR
r -t 0.083141203 -s 10 -d -1 -p BellLabsTrace -e 48 -c 2 -a 0 -i 6 -k RTR
r -t 0.083141370 -s 3 -d -1 -p BellLabsTrace -e 48 -c 2 -a 0 -i 6 -k RTR
r -t 0.083141370 -s 5 -d -1 -p BellLabsTrace -e 48 -c 2 -a 0 -i 6 -k RTR
r -t 0.083141453 -s 27 -d -1 -p BellLabsTrace -e 48 -c 2 -a 0 -i 6 -k RTR
r -t 0.083141524 -s 13 -d -1 -p BellLabsTrace -e 48 -c 2 -a 0 -i 6 -k RTR
r -t 0.083141524 -s 14 -d -1 -p BellLabsTrace -e 48 -c 2 -a 0 -i 6 -k RTR
+ -t 0.087402627 -s 6 -d -1 -p BellLabsTrace -e 48 -c 2 -a 0 -i 7 -k RTR 
- -t 0.087402627 -s 6 -d -1 -p BellLabsTrace -e 48 -c 2 -a 0 -i 7 -k RTR
h -t 0.087402627 -s 6 -d -1 -p BellLabsTrace -e 48 -c 2 -a 0 -i 7 -k RTR
+ -t 0.087697627 -s 6 -d -1 -p BellLabsTrace -e 106 -c 2 -a 0 -i 7 -k MAC 
- -t 0.087697627 -s 6 -d -1 -p BellLabsTrace -e 106 -c 2 -a 0 -i 7 -k MAC
h -t 0.087697627 -s 6 -d -1 -p BellLabsTrace -e 106 -c 2 -a 0 -i 7 -k MAC
r -t 0.088546044 -s 3 -d -1 -p BellLabsTrace -e 48 -c 2 -a 0 -i 7 -k MAC
r -t 0.088546044 -s 9 -d -1 -p BellLabsTrace -e 48 -c 2 -a 0 -i 7 -k MAC
r -t 0.088546127 -s 0 -d -1 -p BellLabsTrace -e 48 -c 2 -a 0 -i 7 -k MAC
r -t 0.088546127 -s 12 -d -1 -p BellLabsTrace -e 48 -c 2 -a 0 -i 7 -k MAC
r -t 0.088546294 -s 7 -d -1 -p BellLabsTrace -e 48 -c 2 -a 0 -i 7 -k MAC
r -t 0.088546448 -s 15 -d -1 -p BellLabsTrace -e 48 -c 2 -a 0 -i 7 -k MAC
r -t 0.088571044 -s 3 -d -1 -p BellLabsTrace -e 48 -c 2 -a 0 -i 7 -k RTR
r -t 0.088571044 -s 9 -d -1 -p BellLabsTrace -e 48 -c 2 -a 0 -i 7 -k RTR
r -t 0.088571127 -s 0 -d -1 -p BellLabsTrace -e 48 -c 2 -a 0 -i 7 -k RTR
r -t 0.088571127 -s 12 -d -1 -p BellLabsTrace -e 48 -c 2 -a 0 -i 7 -k RTR
r -t 0.088571294 -s 7 -d -1 -p BellLabsTrace -e 48 -c 2 -a 0 -i 7 -k RTR
r -t 0.088571448 -s 15 -d -1 -p BellLabsTrace -e 48 -c 2 -a 0 -i 7 -k RTR
+ -t 0.120612814 -s 10 -d -1 -p BellLabsTrace -e 48 -c 2 -a 0 -i 8 -k RTR 
- -t 0.120612814 -s 10 -d -1 -p BellLabsTrace -e 48 -c 2 -a 0 -i 8 -k RTR
h -t 0.120612814 -s 10 -d -1 -p BellLabsTrace -e 48 -c 2 -a 0 -i 8 -k RTR
+ -t 0.120827814 -s 10 -d -1 -p BellLabsTrace -e 106 -c 2 -a 0 -i 8 -k MAC 
- -t 0.120827814 -s 10 -d -1 -p BellLabsTrace -e 106 -c 2 -a 0 -i 8 -k MAC
h -t 0.120827814 -s 10 -d -1 -p BellLabsTrace -e 106 -c 2 -a 0 -i 8 -k MAC
r -t 0.121676064 -s 27 -d -1 -p BellLabsTrace -e 48 -c 2 -a 0 -i 8 -k MAC
r -t 0.121676231 -s 8 -d -1 -p BellLabsTrace -e 48 -c 2 -a 0 -i 8 -k MAC
r -t 0.121676231 -s 7 -d -1 -p BellLabsTrace -e 48 -c 2 -a 0 -i 8 -k MAC
r -t 0.121676231 -s 13 -d -1 -p BellLabsTrace -e 48 -c 2 -a 0 -i 8 -k MAC
r -t 0.121676231 -s 14 -d -1 -p BellLabsTrace -e 48 -c 2 -a 0 -i 8 -k MAC
r -t 0.121676314 -s 4 -d -1 -p BellLabsTrace -e 48 -c 2 -a 0 -i 8 -k MAC
r -t 0.121676314 -s 16 -d -1 -p BellLabsTrace -e 48 -c 2 -a 0 -i 8 -k MAC
r -t 0.121676481 -s 9 -d -1 -p BellLabsTrace -e 48 -c 2 -a 0 -i 8 -k MAC
r -t 0.121676481 -s 11 -d -1 -p BellLabsTrace -e 48 -c 2 -a 0 -i 8 -k MAC
r -t 0.121676635 -s 2 -d -1 -p BellLabsTrace -e 48 -c 2 -a 0 -i 8 -k MAC
r -t 0.121676635 -s 1 -d -1 -p BellLabsTrace -e 48 -c 2 -a 0 -i 8 -k MAC
r -t 0.121676635 -s 19 -d -1 -p BellLabsTrace -e 48 -c 2 -a 0 -i 8 -k MAC
r -t 0.121676635 -s 20 -d -1 -p BellLabsTrace -e 48 -c 2 -a 0 -i 8 -k MAC
r -t 0.121701064 -s 27 -d -1 -p BellLabsTrace -e 48 -c 2 -a 0 -i 8 -k RTR
r -t 0.121701231 -s 8 -d -1 -p BellLabsTrace -e 48 -c 2 -a 0 -i 8 -k RTR
r -t 0.121701231 -s 7 -d -1 -p BellLabsTrace -e 48 -c 2 -a 0 -i 8 -k RTR
r -t 0.121701231 -s 13 -d -1 -p BellLabsTrace -e 48 -c 2 -a 0 -i 8 -k RTR
r -t 0.121701231 -s 14 -d -1 -p BellLabsTrace -e 48 -c 2 -a 0 -i 8 -k RTR
r -t 0.121701314 -s 4 -d -1 -p BellLabsTrace -e 48 -c 2 -a 0 -i 8 -k RTR
r -t 0.121701314 -s 16 -d -1 -p BellLabsTrace -e 48 -c 2 -a 0 -i 8 -k RTR
r -t 0.121701481 -s 9 -d -1 -p BellLabsTrace -e 48 -c 2 -a 0 -i 8 -k RTR
r -t 0.121701481 -s 11 -d -1 -p BellLabsTrace -e 48 -c 2 -a 0 -i 8 -k RTR
r -t 0.121701635 -s 2 -d -1 -p BellLabsTrace -e 48 -c 2 -a 0 -i 8 -k RTR
r -t 0.121701635 -s 1 -d -1 -p BellLabsTrace -e 48 -c 2 -a 0 -i 8 -k RTR
r -t 0.121701635 -s 19 -d -1 -p BellLabsTrace -e 48 -c 2 -a 0 -i 8 -k RTR
r -t 0.121701635 -s 20 -d -1 -p BellLabsTrace -e 48 -c 2 -a 0 -i 8 -k RTR
+ -t 0.156480886 -s 2 -d -1 -p BellLabsTrace -e 48 -c 2 -a 0 -i 9 -k RTR 
- -t 0.156480886 -s 2 -d -1 -p BellLabsTrace -e 48 -c 2 -a 0 -i 9 -k RTR
h -t 0.156480886 -s 2 -d -1 -p BellLabsTrace -e 48 -c 2 -a 0 -i 9 -k RTR
+ -t 0.156875886 -s 2 -d -1 -p BellLabsTrace -e 106 -c 2 -a 0 -i 9 -k MAC 
- -t 0.156875886 -s 2 -d -1 -p BellLabsTrace -e 106 -c 2 -a 0 -i 9 -k MAC
h -t 0.156875886 -s 2 -d -1 -p BellLabsTrace -e 106 -c 2 -a 0 -i 9 -k MAC
r -t 0.157724302 -s 4 -d -1 -p BellLabsTrace -e 48 -c 2 -a 0 -i 9 -k MAC
r -t 0.157724302 -s 5 -d -1 -p BellLabsTrace -e 48 -c 2 -a 0 -i 9 -k MAC
r -t 0.157724386 -s 8 -d -1 -p BellLabsTrace -e 48 -c 2 -a 0 -i 9 -k MAC
r -t 0.157724552 -s 1 -d -1 -p BellLabsTrace -e 48 -c 2 -a 0 -i 9 -k MAC
r -t 0.157724707 -s 10 -d -1 -p BellLabsTrace -e 48 -c 2 -a 0 -i 9 -k MAC
r -t 0.157724707 -s 11 -d -1 -p BellLabsTrace -e 48 -c 2 -a 0 -i 9 -k MAC
r -t 0.157749302 -s 4 -d -1 -p BellLabsTrace -e 48 -c 2 -a 0 -i 9 -k RTR
r -t 0.157749302 -s 5 -d -1 -p BellLabsTrace -e 48 -c 2 -a 0 -i 9 -k RTR
r -t 0.157749386 -s 8 -d -1 -p BellLabsTrace -e 48 -c 2 -a 0 -i 9 -k RTR
r -t 0.157749552 -s 1 -d -1 -p BellLabsTrace -e 48 -c 2 -a 0 -i 9 -k RTR
r -t 0.157749707 -s 10 -d -1 -p BellLabsTrace -e 48 -c 2 -a 0 -i 9 -k RTR
r -t 0.157749707 -s 11 -d -1 -p BellLabsTrace -e 48 -c 2 -a 0 -i 9 -k RTR
+ -t 0.163658500 -s 19 -d -1 -p BellLabsTrace -e 48 -c 2 -a 0 -i 10 -k RTR 
- -t 0.163658500 -s 19 -d -1 -p BellLabsTrace -e 48 -c 2 -a 0 -i 10 -k RTR
h -t 0.163658500 -s 19 -d -1 -p BellLabsTrace -e 48 -c 2 -a 0 -i 10 -k RTR
+ -t 0.164233500 -s 19 -d -1 -p BellLabsTrace -e 106 -c 2 -a 0 -i 10 -k MAC 
- -t 0.164233500 -s 19 -d -1 -p BellLabsTrace -e 106 -c 2 -a 0 -i 10 -k MAC
h -t 0.164233500 -s 19 -d -1 -p BellLabsTrace -e 106 -c 2 -a 0 -i 10 -k MAC
r -t 0.165081916 -s 16 -d -1 -p BellLabsTrace -e 48 -c 2 -a 0 -i 10 -k MAC
r -t 0.165081916 -s 15 -d -1 -p BellLabsTrace -e 48 -c 2 -a 0 -i 10 -k MAC
r -t 0.165081916 -s 21 -d -1 -p BellLabsTrace -e 48 -c 2 -a 0 -i 10 -k MAC
r -t 0.165081916 -s 22 -d -1 -p BellLabsTrace -e 48 -c 2 -a 0 -i 10 -k MAC
r -t 0.165082000 -s 13 -d -1 -p BellLabsTrace -e 48 -c 2 -a 0 -i 10 -k MAC
r -t 0.165082000 -s 25 -d -1 -p BellLabsTrace -e 48 -c 2 -a 0 -i 10 -k MAC
r -t 0.165082101 -s 27 -d -1 -p BellLabsTrace -e 48 -c 2 -a 0 -i 10 -k MAC
r -t 0.165082166 -s 18 -d -1 -p BellLabsTrace -e 48 -c 2 -a 0 -i 10 -k MAC
r -t 0.165082166 -s 20 -d -1 -p BellLabsTrace -e 48 -c 2 -a 0 -i 10 -k MAC
r -t 0.165082320 -s 10 -d -1 -p BellLabsTrace -e 48 -c 2 -a 0 -i 10 -k MAC
r -t 0.165082320 -s 9 -d -1 -p BellLabsTrace -e 48 -c 2 -a 0 -i 10 -k MAC
r -t 0.165106916 -s 16 -d -1 -p BellLabsTrace -e 48 -c 2 -a 0 -i 10 -k RTR
r -t 0.165106916 -s 15 -d -1 -p BellLabsTrace -e 48 -c 2 -a 0 -i 10 -k RTR
r -t 0.165106916 -s 21 -d -1 -p BellLabsTrace -e 48 -c 2 -a 0 -i 10 -k RTR
r -t 0.165106916 -s 22 -d -1 -p BellLabsTrace -e 48 -c 2 -a 0 -i 10 -k RTR
r -t 0.165107000 -s 13 -d -1 -p BellLabsTrace -e 48 -c 2 -a 0 -i 10 -k RTR
r -t 0.165107000 -s 25 -d -1 -p BellLabsTrace -e 48 -c 2 -a 0 -i 10 -k RTR
r -t 0.165107101 -s 27 -d -1 -p BellLabsTrace -e 48 -c 2 -a 0 -i 10 -k RTR
r -t 0.165107166 -s 18 -d -1 -p BellLabsTrace -e 48 -c 2 -a 0 -i 10 -k RTR
r -t 0.165107166 -s 20 -d -1 -p BellLabsTrace -e 48 -c 2 -a 0 -i 10 -k RTR
r -t 0.165107320 -s 10 -d -1 -p BellLabsTrace -e 48 -c 2 -a 0 -i 10 -k RTR
r -t 0.165107320 -s 9 -d -1 -p BellLabsTrace -e 48 -c 2 -a 0 -i 10 -k RTR
+ -t 0.174370513 -s 7 -d -1 -p BellLabsTrace -e 48 -c 2 -a 0 -i 11 -k RTR 
- -t 0.174370513 -s 7 -d -1 -p BellLabsTrace -e 48 -c 2 -a 0 -i 11 -k RTR
h -t 0.174370513 -s 7 -d -1 -p BellLabsTrace -e 48 -c 2 -a 0 -i 11 -k RTR
+ -t 0.174605513 -s 7 -d -1 -p BellLabsTrace -e 106 -c 2 -a 0 -i 11 -k MAC 
- -t 0.174605513 -s 7 -d -1 -p BellLabsTrace -e 106 -c 2 -a 0 -i 11 -k MAC
h -t 0.174605513 -s 7 -d -1 -p BellLabsTrace -e 106 -c 2 -a 0 -i 11 -k MAC
r -t 0.175453929 -s 4 -d -1 -p BellLabsTrace -e 48 -c 2 -a 0 -i 11 -k MAC
r -t 0.175453929 -s 3 -d -1 -p BellLabsTrace -e 48 -c 2 -a 0 -i 11 -k MAC
r -t 0.175453929 -s 9 -d -1 -p BellLabsTrace -e 48 -c 2 -a 0 -i 11 -k MAC
r -t 0.175453929 -s 10 -d -1 -p BellLabsTrace -e 48 -c 2 -a 0 -i 11 -k MAC
r -t 0.175454013 -s 1 -d -1 -p BellLabsTrace -e 48 -c 2 -a 0 -i 11 -k MAC
r -t 0.175454013 -s 13 -d -1 -p BellLabsTrace -e 48 -c 2 -a 0 -i 11 -k MAC
r -t 0.175454114 -s 27 -d -1 -p BellLabsTrace -e 48 -c 2 -a 0 -i 11 -k MAC
r -t 0.175454179 -s 6 -d -1 -p BellLabsTrace -e 48 -c 2 -a 0 -i 11 -k MAC
r -t 0.175454179 -s 8 -d -1 -p BellLabsTrace -e 48 -c 2 -a 0 -i 11 -k MAC
r -t 0.175454334 -s 15 -d -1 -p BellLabsTrace -e 48 -c 2 -a 0 -i 11 -k MAC
r -t 0.175454334 -s 16 -d -1 -p BellLabsTrace -e 48 -c 2 -a 0 -i 11 -k MAC
r -t 0.175478929 -s 4 -d -1 -p BellLabsTrace -e 48 -c 2 -a 0 -i 11 -k RTR
r -t 0.175478929 -s 3 -d -1 -p BellLabsTrace -e 48 -c 2 -a 0 -i 11 -k RTR
r -t 0.175478929 -s 9 -d -1 -p BellLabsTrace -e 48 -c 2 -a 0 -i 11 -k RTR
r -t 0.175478929 -s 10 -d -1 -p BellLabsTrace -e 48 -c 2 -a 0 -i 11 -k RTR
r -t 0.175479013 -s 1 -d -1 -p BellLabsTrace -e 48 -c 2 -a 0 -i 11 -k RTR
r -t 0.175479013 -s 13 -d -1 -p BellLabsTrace -e 48 -c 2 -a 0 -i 11 -k RTR
r -t 0.175479114 -s 27 -d -1 -p BellLabsTrace -e 48 -c 2 -a 0 -i 11 -k RTR
r -t 0.175479179 -s 6 -d -1 -p BellLabsTrace -e 48 -c 2 -a 0 -i 11 -k RTR
r -t 0.175479179 -s 8 -d -1 -p BellLabsTrace -e 48 -c 2 -a 0 -i 11 -k RTR
r -t 0.175479334 -s 15 -d -1 -p BellLabsTrace -e 48 -c 2 -a 0 -i 11 -k RTR
r -t 0.175479334 -s 16 -d -1 -p BellLabsTrace -e 48 -c 2 -a 0 -i 11 -k RTR
+ -t 0.178029290 -s 27 -d -1 -p BellLabsTrace -e 48 -c 2 -a 0 -i 12 -k RTR 
- -t 0.178029290 -s 27 -d -1 -p BellLabsTrace -e 48 -c 2 -a 0 -i 12 -k RTR
h -t 0.178029290 -s 27 -d -1 -p BellLabsTrace -e 48 -c 2 -a 0 -i 12 -k RTR
+ -t 0.178364290 -s 27 -d -1 -p BellLabsTrace -e 106 -c 2 -a 0 -i 12 -k MAC 
- -t 0.178364290 -s 27 -d -1 -p BellLabsTrace -e 106 -c 2 -a 0 -i 12 -k MAC
h -t 0.178364290 -s 27 -d -1 -p BellLabsTrace -e 106 -c 2 -a 0 -i 12 -k MAC
r -t 0.179212540 -s 10 -d -1 -p BellLabsTrace -e 48 -c 2 -a 0 -i 12 -k MAC
r -t 0.179212540 -s 16 -d -1 -p BellLabsTrace -e 48 -c 2 -a 0 -i 12 -k MAC
r -t 0.179212624 -s 14 -d -1 -p BellLabsTrace -e 48 -c 2 -a 0 -i 12 -k MAC
r -t 0.179212624 -s 13 -d -1 -p BellLabsTrace -e 48 -c 2 -a 0 -i 12 -k MAC
r -t 0.179212891 -s 8 -d -1 -p BellLabsTrace -e 48 -c 2 -a 0 -i 12 -k MAC
r -t 0.179212891 -s 7 -d -1 -p BellLabsTrace -e 48 -c 2 -a 0 -i 12 -k MAC
r -t 0.179212891 -s 19 -d -1 -p BellLabsTrace -e 48 -c 2 -a 0 -i 12 -k MAC
r -t 0.179212891 -s 20 -d -1 -p BellLabsTrace -e 48 -c 2 -a 0 -i 12 -k MAC
r -t 0.179213002 -s 11 -d -1 -p BellLabsTrace -e 48 -c 2 -a 0 -i 12 -k MAC
r -t 0.179213002 -s 9 -d -1 -p BellLabsTrace -e 48 -c 2 -a 0 -i 12 -k MAC
r -t 0.179213002 -s 15 -d -1 -p BellLabsTrace -e 48 -c 2 -a 0 -i 12 -k MAC
r -t 0.179213002 -s 17 -d -1 -p BellLabsTrace -e 48 -c 2 -a 0 -i 12 -k MAC
r -t 0.179213040 -s 4 -d -1 -p BellLabsTrace -e 48 -c 2 -a 0 -i 12 -k MAC
r -t 0.179213040 -s 22 -d -1 -p BellLabsTrace -e 48 -c 2 -a 0 -i 12 -k MAC
r -t 0.179237540 -s 10 -d -1 -p BellLabsTrace -e 48 -c 2 -a 0 -i 12 -k RTR
r -t 0.179237540 -s 16 -d -1 -p BellLabsTrace -e 48 -c 2 -a 0 -i 12 -k RTR
r -t 0.179237624 -s 14 -d -1 -p BellLabsTrace -e 48 -c 2 -a 0 -i 12 -k RTR
r -t 0.179237624 -s 13 -d -1 -p BellLabsTrace -e 48 -c 2 -a 0 -i 12 -k RTR
r -t 0.179237891 -s 8 -d -1 -p BellLabsTrace -e 48 -c 2 -a 0 -i 12 -k RTR
r -t 0.179237891 -s 7 -d -1 -p BellLabsTrace -e 48 -c 2 -a 0 -i 12 -k RTR
r -t 0.179237891 -s 19 -d -1 -p BellLabsTrace -e 48 -c 2 -a 0 -i 12 -k RTR
r -t 0.179237891 -s 20 -d -1 -p BellLabsTrace -e 48 -c 2 -a 0 -i 12 -k RTR
r -t 0.179238002 -s 11 -d -1 -p BellLabsTrace -e 48 -c 2 -a 0 -i 12 -k RTR
r -t 0.179238002 -s 9 -d -1 -p BellLabsTrace -e 48 -c 2 -a 0 -i 12 -k RTR
r -t 0.179238002 -s 15 -d -1 -p BellLabsTrace -e 48 -c 2 -a 0 -i 12 -k RTR
r -t 0.179238002 -s 17 -d -1 -p BellLabsTrace -e 48 -c 2 -a 0 -i 12 -k RTR
r -t 0.179238040 -s 4 -d -1 -p BellLabsTrace -e 48 -c 2 -a 0 -i 12 -k RTR
r -t 0.179238040 -s 22 -d -1 -p BellLabsTrace -e 48 -c 2 -a 0 -i 12 -k RTR
+ -t 0.210610025 -s 24 -d -1 -p BellLabsTrace -e 48 -c 2 -a 0 -i 13 -k RTR 
- -t 0.210610025 -s 24 -d -1 -p BellLabsTrace -e 48 -c 2 -a 0 -i 13 -k RTR
h -t 0.210610025 -s 24 -d -1 -p BellLabsTrace -e 48 -c 2 -a 0 -i 13 -k RTR
+ -t 0.210685025 -s 24 -d -1 -p BellLabsTrace -e 106 -c 2 -a 0 -i 13 -k MAC 
- -t 0.210685025 -s 24 -d -1 -p BellLabsTrace -e 106 -c 2 -a 0 -i 13 -k MAC
h -t 0.210685025 -s 24 -d -1 -p BellLabsTrace -e 106 -c 2 -a 0 -i 13 -k MAC
r -t 0.211533442 -s 21 -d -1 -p BellLabsTrace -e 48 -c 2 -a 0 -i 13 -k MAC
r -t 0.211533525 -s 18 -d -1 -p BellLabsTrace -e 48 -c 2 -a 0 -i 13 -k MAC
r -t 0.211533692 -s 25 -d -1 -p BellLabsTrace -e 48 -c 2 -a 0 -i 13 -k MAC
r -t 0.211533846 -s 15 -d -1 -p BellLabsTrace -e 48 -c 2 -a 0 -i 13 -k MAC
r -t 0.211558442 -s 21 -d -1 -p BellLabsTrace -e 48 -c 2 -a 0 -i 13 -k RTR
r -t 0.211558525 -s 18 -d -1 -p BellLabsTrace -e 48 -c 2 -a 0 -i 13 -k RTR
r -t 0.211558692 -s 25 -d -1 -p BellLabsTrace -e 48 -c 2 -a 0 -i 13 -k RTR
r -t 0.211558846 -s 15 -d -1 -p BellLabsTrace -e 48 -c 2 -a 0 -i 13 -k RTR
+ -t 0.259324397 -s 8 -d -1 -p BellLabsTrace -e 48 -c 2 -a 0 -i 14 -k RTR 
- -t 0.259324397 -s 8 -d -1 -p BellLabsTrace -e 48 -c 2 -a 0 -i 14 -k RTR
h -t 0.259324397 -s 8 -d -1 -p BellLabsTrace -e 48 -c 2 -a 0 -i 14 -k RTR
+ -t 0.259919397 -s 8 -d -1 -p BellLabsTrace -e 106 -c 2 -a 0 -i 14 -k MAC 
- -t 0.259919397 -s 8 -d -1 -p BellLabsTrace -e 106 -c 2 -a 0 -i 14 -k MAC
h -t 0.259919397 -s 8 -d -1 -p BellLabsTrace -e 106 -c 2 -a 0 -i 14 -k MAC
r -t 0.260767814 -s 5 -d -1 -p BellLabsTrace -e 48 -c 2 -a 0 -i 14 -k MAC
r -t 0.260767814 -s 4 -d -1 -p BellLabsTrace -e 48 -c 2 -a 0 -i 14 -k MAC
r -t 0.260767814 -s 10 -d -1 -p BellLabsTrace -e 48 -c 2 -a 0 -i 14 -k MAC
r -t 0.260767814 -s 11 -d -1 -p BellLabsTrace -e 48 -c 2 -a 0 -i 14 -k MAC
r -t 0.260767897 -s 2 -d -1 -p BellLabsTrace -e 48 -c 2 -a 0 -i 14 -k MAC
r -t 0.260767897 -s 14 -d -1 -p BellLabsTrace -e 48 -c 2 -a 0 -i 14 -k MAC
r -t 0.260767998 -s 27 -d -1 -p BellLabsTrace -e 48 -c 2 -a 0 -i 14 -k MAC
r -t 0.260768064 -s 7 -d -1 -p BellLabsTrace -e 48 -c 2 -a 0 -i 14 -k MAC
r -t 0.260768218 -s 16 -d -1 -p BellLabsTrace -e 48 -c 2 -a 0 -i 14 -k MAC
r -t 0.260768218 -s 17 -d -1 -p BellLabsTrace -e 48 -c 2 -a 0 -i 14 -k MAC
r -t 0.260792814 -s 5 -d -1 -p BellLabsTrace -e 48 -c 2 -a 0 -i 14 -k RTR
r -t 0.260792814 -s 4 -d -1 -p BellLabsTrace -e 48 -c 2 -a 0 -i 14 -k RTR
r -t 0.260792814 -s 10 -d -1 -p BellLabsTrace -e 48 -c 2 -a 0 -i 14 -k RTR
r -t 0.260792814 -s 11 -d -1 -p BellLabsTrace -e 48 -c 2 -a 0 -i 14 -k RTR
r -t 0.260792897 -s 2 -d -1 -p BellLabsTrace -e 48 -c 2 -a 0 -i 14 -k RTR
r -t 0.260792897 -s 14 -d -1 -p BellLabsTrace -e 48 -c 2 -a 0 -i 14 -k RTR
r -t 0.260792998 -s 27 -d -1 -p BellLabsTrace -e 48 -c 2 -a 0 -i 14 -k RTR
r -t 0.260793064 -s 7 -d -1 -p BellLabsTrace -e 48 -c 2 -a 0 -i 14 -k RTR
r -t 0.260793218 -s 16 -d -1 -p BellLabsTrace -e 48 -c 2 -a 0 -i 14 -k RTR
r -t 0.260793218 -s 17 -d -1 -p BellLabsTrace -e 48 -c 2 -a 0 -i 14 -k RTR
+ -t 0.272410983 -s 17 -d -1 -p BellLabsTrace -e 48 -c 2 -a 0 -i 15 -k RTR 
- -t 0.272410983 -s 17 -d -1 -p BellLabsTrace -e 48 -c 2 -a 0 -i 15 -k RTR
h -t 0.272410983 -s 17 -d -1 -p BellLabsTrace -e 48 -c 2 -a 0 -i 15 -k RTR
+ -t 0.272905983 -s 17 -d -1 -p BellLabsTrace -e 106 -c 2 -a 0 -i 15 -k MAC 
- -t 0.272905983 -s 17 -d -1 -p BellLabsTrace -e 106 -c 2 -a 0 -i 15 -k MAC
h -t 0.272905983 -s 17 -d -1 -p BellLabsTrace -e 106 -c 2 -a 0 -i 15 -k MAC
r -t 0.273754400 -s 14 -d -1 -p BellLabsTrace -e 48 -c 2 -a 0 -i 15 -k MAC
r -t 0.273754400 -s 20 -d -1 -p BellLabsTrace -e 48 -c 2 -a 0 -i 15 -k MAC
r -t 0.273754483 -s 11 -d -1 -p BellLabsTrace -e 48 -c 2 -a 0 -i 15 -k MAC
r -t 0.273754483 -s 23 -d -1 -p BellLabsTrace -e 48 -c 2 -a 0 -i 15 -k MAC
r -t 0.273754650 -s 16 -d -1 -p BellLabsTrace -e 48 -c 2 -a 0 -i 15 -k MAC
r -t 0.273754695 -s 27 -d -1 -p BellLabsTrace -e 48 -c 2 -a 0 -i 15 -k MAC
r -t 0.273754804 -s 8 -d -1 -p BellLabsTrace -e 48 -c 2 -a 0 -i 15 -k MAC
r -t 0.273754804 -s 26 -d -1 -p BellLabsTrace -e 48 -c 2 -a 0 -i 15 -k MAC
r -t 0.273779400 -s 14 -d -1 -p BellLabsTrace -e 48 -c 2 -a 0 -i 15 -k RTR
r -t 0.273779400 -s 20 -d -1 -p BellLabsTrace -e 48 -c 2 -a 0 -i 15 -k RTR
r -t 0.273779483 -s 11 -d -1 -p BellLabsTrace -e 48 -c 2 -a 0 -i 15 -k RTR
r -t 0.273779483 -s 23 -d -1 -p BellLabsTrace -e 48 -c 2 -a 0 -i 15 -k RTR
r -t 0.273779650 -s 16 -d -1 -p BellLabsTrace -e 48 -c 2 -a 0 -i 15 -k RTR
r -t 0.273779695 -s 27 -d -1 -p BellLabsTrace -e 48 -c 2 -a 0 -i 15 -k RTR
r -t 0.273779804 -s 8 -d -1 -p BellLabsTrace -e 48 -c 2 -a 0 -i 15 -k RTR
r -t 0.273779804 -s 26 -d -1 -p BellLabsTrace -e 48 -c 2 -a 0 -i 15 -k RTR
+ -t 0.277419837 -s 18 -d -1 -p BellLabsTrace -e 48 -c 2 -a 0 -i 16 -k RTR 
- -t 0.277419837 -s 18 -d -1 -p BellLabsTrace -e 48 -c 2 -a 0 -i 16 -k RTR
h -t 0.277419837 -s 18 -d -1 -p BellLabsTrace -e 48 -c 2 -a 0 -i 16 -k RTR
+ -t 0.277514837 -s 18 -d -1 -p BellLabsTrace -e 106 -c 2 -a 0 -i 16 -k MAC 
- -t 0.277514837 -s 18 -d -1 -p BellLabsTrace -e 106 -c 2 -a 0 -i 16 -k MAC
h -t 0.277514837 -s 18 -d -1 -p BellLabsTrace -e 106 -c 2 -a 0 -i 16 -k MAC
r -t 0.278363253 -s 15 -d -1 -p BellLabsTrace -e 48 -c 2 -a 0 -i 16 -k MAC
r -t 0.278363253 -s 21 -d -1 -p BellLabsTrace -e 48 -c 2 -a 0 -i 16 -k MAC