s 0.000169789 _0_ RTR  --- 0 BellLabsTrace 48 [0 0 0 0] [energy 1000.000000 ei 0.000 es 0.000 et 0.000 er 0.000] ------- [0:255 -1:255 32 0] 
s 0.000784789 _0_ MAC  --- 0 BellLabsTrace 106 [0 ffffffff 0 800] [energy 1000.000000 ei 0.000 es 0.000 et 0.000 er 0.000] ------- [0:255 -1:255 32 0] 
N -t 0.000785 -n 3 -e 999.999807
N -t 0.000785 -n 6 -e 999.999807
N -t 0.000785 -n 1 -e 999.999807
N -t 0.000786 -n 9 -e 999.999807
N -t 0.000786 -n 7 -e 999.999807
N -t 0.000786 -n 12 -e 999.999807
N -t 0.000786 -n 4 -e 999.999807
N -t 0.000786 -n 13 -e 999.999807
N -t 0.000786 -n 10 -e 999.999807
N -t 0.000786 -n 15 -e 999.999807
N -t 0.000786 -n 2 -e 999.999807
N -t 0.000786 -n 27 -e 999.999807
N -t 0.000786 -n 8 -e 999.999807
N -t 0.000786 -n 18 -e 999.999807
N -t 0.000786 -n 16 -e 999.999807
N -t 0.000786 -n 19 -e 999.999807
N -t 0.000786 -n 14 -e 999.999807
N -t 0.000786 -n 5 -e 999.999807
N -t 0.000787 -n 21 -e 999.999807
N -t 0.000787 -n 11 -e 999.999807
r 0.001633205 _3_ MAC  --- 0 BellLabsTrace 48 [0 ffffffff 0 800] [energy 999.999807 ei 0.000 es 0.000 et 0.000 er 0.000] ------- [0:255 -1:255 32 0] 
r 0.001633289 _6_ MAC  --- 0 BellLabsTrace 48 [0 ffffffff 0 800] [energy 999.999807 ei 0.000 es 0.000 et 0.000 er 0.000] ------- [0:255 -1:255 32 0] 
r 0.001633455 _1_ MAC  --- 0 BellLabsTrace 48 [0 ffffffff 0 800] [energy 999.999807 ei 0.000 es 0.000 et 0.000 er 0.000] ------- [0:255 -1:255 32 0] 
r 0.001633609 _9_ MAC  --- 0 BellLabsTrace 48 [0 ffffffff 0 800] [energy 999.999807 ei 0.000 es 0.000 et 0.000 er 0.000] ------- [0:255 -1:255 32 0] 
r 0.001658205 _3_ RTR  --- 0 BellLabsTrace 48 [0 ffffffff 0 800] [energy 999.999807 ei 0.000 es 0.000 et 0.000 er 0.000] ------- [0:255 -1:255 32 0] 
r 0.001658289 _6_ RTR  --- 0 BellLabsTrace 48 [0 ffffffff 0 800] [energy 999.999807 ei 0.000 es 0.000 et 0.000 er 0.000] ------- [0:255 -1:255 32 0] 
r 0.001658455 _1_ RTR  --- 0 BellLabsTrace 48 [0 ffffffff 0 800] [energy 999.999807 ei 0.000 es 0.000 et 0.000 er 0.000] ------- [0:255 -1:255 32 0] 
r 0.001658609 _9_ RTR  --- 0 BellLabsTrace 48 [0 ffffffff 0 800] [energy 999.999807 ei 0.000 es 0.000 et 0.000 er 0.000] ------- [0:255 -1:255 32 0] 
s 0.044061336 _1_ RTR  --- 1 BellLabsTrace 48 [0 0 0 0] [energy 999.999807 ei 0.000 es 0.000 et 0.000 er 0.000] ------- [1:255 -1:255 32 0] 
s 0.044436336 _1_ MAC  --- 1 BellLabsTrace 106 [0 ffffffff 1 800] [energy 999.999807 ei 0.000 es 0.000 et 0.000 er 0.000] ------- [1:255 -1:255 32 0] 
N -t 0.044437 -n 3 -e 999.998144
N -t 0.044437 -n 4 -e 999.998144
N -t 0.044437 -n 7 -e 999.998144
N -t 0.044437 -n 0 -e 999.998070
N -t 0.044437 -n 2 -e 999.998144
N -t 0.044437 -n 9 -e 999.998144
N -t 0.044437 -n 10 -e 999.998144
N -t 0.044437 -n 6 -e 999.998144
N -t 0.044437 -n 8 -e 999.998144
N -t 0.044437 -n 13 -e 999.998144
N -t 0.044437 -n 5 -e 999.998144
N -t 0.044437 -n 27 -e 999.998144
N -t 0.044438 -n 12 -e 999.998144
N -t 0.044438 -n 14 -e 999.998144
N -t 0.044438 -n 11 -e 999.998144
N -t 0.044438 -n 15 -e 999.998144
N -t 0.044438 -n 16 -e 999.998144
N -t 0.044438 -n 19 -e 999.998144
N -t 0.044438 -n 17 -e 999.998279
N -t 0.044438 -n 18 -e 999.998144
N -t 0.044438 -n 20 -e 999.998279
N -t 0.044438 -n 21 -e 999.998144
N -t 0.044438 -n 22 -e 999.998279
r 0.045284752 _3_ MAC  --- 1 BellLabsTrace 48 [0 ffffffff 1 800] [energy 999.998144 ei 0.002 es 0.000 et 0.000 er 0.000] ------- [1:255 -1:255 32 0] 
r 0.045284752 _4_ MAC  --- 1 BellLabsTrace 48 [0 ffffffff 1 800] [energy 999.998144 ei 0.002 es 0.000 et 0.000 er 0.000] ------- [1:255 -1:255 32 0] 
r 0.045284836 _7_ MAC  --- 1 BellLabsTrace 48 [0 ffffffff 1 800] [energy 999.998144 ei 0.002 es 0.000 et 0.000 er 0.000] ------- [1:255 -1:255 32 0] 
r 0.045285002 _0_ MAC  --- 1 BellLabsTrace 48 [0 ffffffff 1 800] [energy 999.998070 ei 0.002 es 0.000 et 0.000 er 0.000] ------- [1:255 -1:255 32 0] 
r 0.045285002 _2_ MAC  --- 1 BellLabsTrace 48 [0 ffffffff 1 800] [energy 999.998144 ei 0.002 es 0.000 et 0.000 er 0.000] ------- [1:255 -1:255 32 0] 
r 0.045285156 _9_ MAC  --- 1 BellLabsTrace 48 [0 ffffffff 1 800] [energy 999.998144 ei 0.002 es 0.000 et 0.000 er 0.000] ------- [1:255 -1:255 32 0] 
r 0.045285156 _10_ MAC  --- 1 BellLabsTrace 48 [0 ffffffff 1 800] [energy 999.998144 ei 0.002 es 0.000 et 0.000 er 0.000] ------- [1:255 -1:255 32 0] 
r 0.045309752 _3_ RTR  --- 1 BellLabsTrace 48 [0 ffffffff 1 800] [energy 999.998144 ei 0.002 es 0.000 et 0.000 er 0.000] ------- [1:255 -1:255 32 0] 
r 0.045309752 _4_ RTR  --- 1 BellLabsTrace 48 [0 ffffffff 1 800] [energy 999.998144 ei 0.002 es 0.000 et 0.000 er 0.000] ------- [1:255 -1:255 32 0] 
r 0.045309836 _7_ RTR  --- 1 BellLabsTrace 48 [0 ffffffff 1 800] [energy 999.998144 ei 0.002 es 0.000 et 0.000 er 0.000] ------- [1:255 -1:255 32 0] 
r 0.045310002 _0_ RTR  --- 1 BellLabsTrace 48 [0 ffffffff 1 800] [energy 999.998070 ei 0.002 es 0.000 et 0.000 er 0.000] ------- [1:255 -1:255 32 0] 
r 0.045310002 _2_ RTR  --- 1 BellLabsTrace 48 [0 ffffffff 1 800] [energy 999.998144 ei 0.002 es 0.000 et 0.000 er 0.000] ------- [1:255 -1:255 32 0] 
r 0.045310156 _9_ RTR  --- 1 BellLabsTrace 48 [0 ffffffff 1 800] [energy 999.998144 ei 0.002 es 0.000 et 0.000 er 0.000] ------- [1:255 -1:255 32 0] 
r 0.045310156 _10_ RTR  --- 1 BellLabsTrace 48 [0 ffffffff 1 800] [energy 999.998144 ei 0.002 es 0.000 et 0.000 er 0.000] ------- [1:255 -1:255 32 0] 
s 0.045678458 _22_ RTR  --- 2 BellLabsTrace 48 [0 0 0 0] [energy 999.998279 ei 0.002 es 0.000 et 0.000 er 0.000] ------- [22:255 -1:255 32 0] 
s 0.046093458 _22_ MAC  --- 2 BellLabsTrace 106 [0 ffffffff 16 800] [energy 999.998279 ei 0.002 es 0.000 et 0.000 er 0.000] ------- [22:255 -1:255 32 0] 
N -t 0.046094 -n 20 -e 999.998086
N -t 0.046094 -n 19 -e 999.997950
N -t 0.046094 -n 25 -e 999.998221
N -t 0.046094 -n 26 -e 999.998221
N -t 0.046094 -n 16 -e 999.997950
N -t 0.046094 -n 21 -e 999.997950
N -t 0.046094 -n 23 -e 999.998221
N -t 0.046094 -n 27 -e 999.997950
N -t 0.046094 -n 14 -e 999.997950
N -t 0.046094 -n 13 -e 999.997950
N -t 0.046094 -n 17 -e 999.998086
N -t 0.046094 -n 15 -e 999.997950
N -t 0.046094 -n 10 -e 999.997950
N -t 0.046094 -n 18 -e 999.997950
N -t 0.046094 -n 24 -e 999.998221
N -t 0.046095 -n 11 -e 999.997950
N -t 0.046095 -n 9 -e 999.997950
N -t 0.046095 -n 12 -e 999.997950
N -t 0.046095 -n 8 -e 999.997950
N -t 0.046095 -n 7 -e 999.997950
N -t 0.046095 -n 4 -e 999.997950
N -t 0.046095 -n 6 -e 999.997950
N -t 0.046095 -n 5 -e 999.997950
N -t 0.046095 -n 3 -e 999.997950
N -t 0.046095 -n 2 -e 999.997950
N -t 0.046095 -n 1 -e 999.997876
r 0.046941875 _20_ MAC  --- 2 BellLabsTrace 48 [0 ffffffff 16 800] [energy 999.998086 ei 0.002 es 0.000 et 0.000 er 0.000] ------- [22:255 -1:255 32 0] 
r 0.046941875 _19_ MAC  --- 2 BellLabsTrace 48 [0 ffffffff 16 800] [energy 999.997950 ei 0.002 es 0.000 et 0.000 er 0.000] ------- [22:255 -1:255 32 0] 
r 0.046941875 _25_ MAC  --- 2 BellLabsTrace 48 [0 ffffffff 16 800] [energy 999.998221 ei 0.002 es 0.000 et 0.000 er 0.000] ------- [22:255 -1:255 32 0] 
r 0.046941875 _26_ MAC  --- 2 BellLabsTrace 48 [0 ffffffff 16 800] [energy 999.998221 ei 0.002 es 0.000 et 0.000 er 0.000] ------- [22:255 -1:255 32 0] 
r 0.046941958 _16_ MAC  --- 2 BellLabsTrace 48 [0 ffffffff 16 800] [energy 999.997950 ei 0.002 es 0.000 et 0.000 er 0.000] ------- [22:255 -1:255 32 0] 
r 0.046942125 _21_ MAC  --- 2 BellLabsTrace 48 [0 ffffffff 16 800] [energy 999.997950 ei 0.002 es 0.000 et 0.000 er 0.000] ------- [22:255 -1:255 32 0] 
r 0.046942125 _23_ MAC  --- 2 BellLabsTrace 48 [0 ffffffff 16 800] [energy 999.998221 ei 0.002 es 0.000 et 0.000 er 0.000] ------- [22:255 -1:255 32 0] 
r 0.046942208 _27_ MAC  --- 2 BellLabsTrace 48 [0 ffffffff 16 800] [energy 999.997950 ei 0.002 es 0.000 et 0.000 er 0.000] ------- [22:255 -1:255 32 0] 
r 0.046942279 _14_ MAC  --- 2 BellLabsTrace 48 [0 ffffffff 16 800] [energy 999.997950 ei 0.002 es 0.000 et 0.000 er 0.000] ------- [22:255 -1:255 32 0] 
r 0.046942279 _13_ MAC  --- 2 BellLabsTrace 48 [0 ffffffff 16 800] [energy 999.997950 ei 0.002 es 0.000 et 0.000 er 0.000] ------- [22:255 -1:255 32 0] 
r 0.046966875 _20_ RTR  --- 2 BellLabsTrace 48 [0 ffffffff 16 800] [energy 999.998086 ei 0.002 es 0.000 et 0.000 er 0.000] ------- [22:255 -1:255 32 0] 
r 0.046966875 _19_ RTR  --- 2 BellLabsTrace 48 [0 ffffffff 16 800] [energy 999.997950 ei 0.002 es 0.000 et 0.000 er 0.000] ------- [22:255 -1:255 32 0] 
r 0.046966875 _25_ RTR  --- 2 BellLabsTrace 48 [0 ffffffff 16 800] [energy 999.998221 ei 0.002 es 0.000 et 0.000 er 0.000] ------- [22:255 -1:255 32 0] 
r 0.046966875 _26_ RTR  --- 2 BellLabsTrace 48 [0 ffffffff 16 800] [energy 999.998221 ei 0.002 es 0.000 et 0.000 er 0.000] ------- [22:255 -1:255 32 0] 
r 0.046966958 _16_ RTR  --- 2 BellLabsTrace 48 [0 ffffffff 16 800] [energy 999.997950 ei 0.002 es 0.000 et 0.000 er 0.000] ------- [22:255 -1:255 32 0] 
r 0.046967125 _21_ RTR  --- 2 BellLabsTrace 48 [0 ffffffff 16 800] [energy 999.997950 ei 0.002 es 0.000 et 0.000 er 0.000] ------- [22:255 -1:255 32 0] 
r 0.046967125 _23_ RTR  --- 2 BellLabsTrace 48 [0 ffffffff 16 800] [energy 999.998221 ei 0.002 es 0.000 et 0.000 er 0.000] ------- [22:255 -1:255 32 0] 
r 0.046967208 _27_ RTR  --- 2 BellLabsTrace 48 [0 ffffffff 16 800] [energy 999.997950 ei 0.002 es 0.000 et 0.000 er 0.000] ------- [22:255 -1:255 32 0] 
r 0.046967279 _14_ RTR  --- 2 BellLabsTrace 48 [0 ffffffff 16 800] [energy 999.997950 ei 0.002 es 0.000 et 0.000 er 0.000] ------- [22:255 -1:255 32 0] 
r 0.046967279 _13_ RTR  --- 2 BellLabsTrace 48 [0 ffffffff 16 800] [energy 999.997950 ei 0.002 es 0.000 et 0.000 er 0.000] ------- [22:255 -1:255 32 0] 
s 0.054599236 _12_ RTR  --- 3 BellLabsTrace 48 [0 0 0 0] [energy 999.997950 ei 0.002 es 0.000 et 0.000 er 0.000] ------- [12:255 -1:255 32 0] 
s 0.055254236 _12_ MAC  --- 3 BellLabsTrace 106 [0 ffffffff c 800] [energy 999.997950 ei 0.002 es 0.000 et 0.000 er 0.000] ------- [12:255 -1:255 32 0] 
N -t 0.055255 -n 9 -e 999.997494
N -t 0.055255 -n 15 -e 999.997494
N -t 0.055255 -n 6 -e 999.997494
N -t 0.055255 -n 18 -e 999.997494
N -t 0.055255 -n 13 -e 999.997494
N -t 0.055255 -n 3 -e 999.997494
N -t 0.055255 -n 21 -e 999.997494
N -t 0.055255 -n 7 -e 999.997494
N -t 0.055255 -n 19 -e 999.997494
N -t 0.055255 -n 0 -e 999.997556
N -t 0.055255 -n 27 -e 999.997494
N -t 0.055255 -n 24 -e 999.997765
N -t 0.055255 -n 10 -e 999.997494
N -t 0.055255 -n 16 -e 999.997494
N -t 0.055255 -n 1 -e 999.997420
N -t 0.055255 -n 25 -e 999.997765
N -t 0.055255 -n 4 -e 999.997494
N -t 0.055255 -n 22 -e 999.997556
N -t 0.055256 -n 14 -e 999.997494
N -t 0.055256 -n 8 -e 999.997494
N -t 0.055256 -n 20 -e 999.997629
N -t 0.055256 -n 2 -e 999.997494
N -t 0.055256 -n 26 -e 999.997765
N -t 0.055256 -n 11 -e 999.997494
N -t 0.055256 -n 17 -e 999.997629
N -t 0.055256 -n 5 -e 999.997494
N -t 0.055256 -n 23 -e 999.997765
s 0.056015658 _14_ RTR  --- 4 BellLabsTrace 48 [0 0 0 0] [energy 999.997494 ei 0.002 es 0.000 et 0.000 er 0.001] ------- [14:255 -1:255 32 0] 
r 0.056102653 _9_ MAC  --- 3 BellLabsTrace 48 [0 ffffffff c 800] [energy 999.997494 ei 0.002 es 0.000 et 0.000 er 0.001] ------- [12:255 -1:255 32 0] 
r 0.056102653 _15_ MAC  --- 3 BellLabsTrace 48 [0 ffffffff c 800] [energy 999.997494 ei 0.002 es 0.000 et 0.000 er 0.001] ------- [12:255 -1:255 32 0] 
r 0.056102736 _6_ MAC  --- 3 BellLabsTrace 48 [0 ffffffff c 800] [energy 999.997494 ei 0.002 es 0.000 et 0.000 er 0.001] ------- [12:255 -1:255 32 0] 
r 0.056102736 _18_ MAC  --- 3 BellLabsTrace 48 [0 ffffffff c 800] [energy 999.997494 ei 0.002 es 0.000 et 0.000 er 0.001] ------- [12:255 -1:255 32 0] 
r 0.056102903 _13_ MAC  --- 3 BellLabsTrace 48 [0 ffffffff c 800] [energy 999.997494 ei 0.002 es 0.000 et 0.000 er 0.001] ------- [12:255 -1:255 32 0] 
r 0.056103057 _3_ MAC  --- 3 BellLabsTrace 48 [0 ffffffff c 800] [energy 999.997494 ei 0.002 es 0.000 et 0.000 er 0.001] ------- [12:255 -1:255 32 0] 
r 0.056103057 _21_ MAC  --- 3 BellLabsTrace 48 [0 ffffffff c 800] [energy 999.997494 ei 0.002 es 0.000 et 0.000 er 0.001] ------- [12:255 -1:255 32 0] 
r 0.056127653 _9_ RTR  --- 3 BellLabsTrace 48 [0 ffffffff c 800] [energy 999.997494 ei 0.002 es 0.000 et 0.000 er 0.001] ------- [12:255 -1:255 32 0] 
r 0.056127653 _15_ RTR  --- 3 BellLabsTrace 48 [0 ffffffff c 800] [energy 999.997494 ei 0.002 es 0.000 et 0.000 er 0.001] ------- [12:255 -1:255 32 0] 
r 0.056127736 _6_ RTR  --- 3 BellLabsTrace 48 [0 ffffffff c 800] [energy 999.997494 ei 0.002 es 0.000 et 0.000 er 0.001] ------- [12:255 -1:255 32 0] 
r 0.056127736 _18_ RTR  --- 3 BellLabsTrace 48 [0 ffffffff c 800] [energy 999.997494 ei 0.002 es 0.000 et 0.000 er 0.001] ------- [12:255 -1:255 32 0] 
r 0.056127903 _13_ RTR  --- 3 BellLabsTrace 48 [0 ffffffff c 800] [energy 999.997494 ei 0.002 es 0.000 et 0.000 er 0.001] ------- [12:255 -1:255 32 0] 
r 0.056128057 _3_ RTR  --- 3 BellLabsTrace 48 [0 ffffffff c 800] [energy 999.997494 ei 0.002 es 0.000 et 0.000 er 0.001] ------- [12:255 -1:255 32 0] 
r 0.056128057 _21_ RTR  --- 3 BellLabsTrace 48 [0 ffffffff c 800] [energy 999.997494 ei 0.002 es 0.000 et 0.000 er 0.001] ------- [12:255 -1:255 32 0] 
s 0.056737569 _14_ MAC  --- 4 BellLabsTrace 106 [0 ffffffff e 800] [energy 999.997494 ei 0.002 es 0.000 et 0.000 er 0.001] ------- [14:255 -1:255 32 0] 
N -t 0.056738 -n 27 -e 999.997306
N -t 0.056738 -n 11 -e 999.997306
N -t 0.056738 -n 10 -e 999.997306
N -t 0.056738 -n 16 -e 999.997306
N -t 0.056738 -n 17 -e 999.997442
N -t 0.056738 -n 8 -e 999.997306
N -t 0.056738 -n 20 -e 999.997442
N -t 0.056738 -n 13 -e 999.997306
N -t 0.056738 -n 5 -e 999.997306
N -t 0.056738 -n 4 -e 999.997306
N -t 0.056738 -n 22 -e 999.997368
N -t 0.056738 -n 23 -e 999.997577
N -t 0.056738 -n 7 -e 999.997306
N -t 0.056738 -n 19 -e 999.997306
N -t 0.056739 -n 2 -e 999.997306
N -t 0.056739 -n 26 -e 999.997577
N -t 0.056739 -n 9 -e 999.997306
N -t 0.056739 -n 15 -e 999.997306
N -t 0.056739 -n 1 -e 999.997232
N -t 0.056739 -n 25 -e 999.997577
N -t 0.056739 -n 3 -e 999.997306
N -t 0.056739 -n 21 -e 999.997306
N -t 0.056739 -n 12 -e 999.997232
N -t 0.056739 -n 6 -e 999.997306
N -t 0.056739 -n 18 -e 999.997306
N -t 0.056739 -n 0 -e 999.997368
N -t 0.056739 -n 24 -e 999.997577
s 0.056904124 _5_ RTR  --- 5 BellLabsTrace 48 [0 0 0 0] [energy 999.997306 ei 0.002 es 0.000 et 0.000 er 0.001] ------- [5:255 -1:255 32 0] 
r 0.057585903 _27_ MAC  --- 4 BellLabsTrace 48 [0 ffffffff e 800] [energy 999.997306 ei 0.002 es 0.000 et 0.000 er 0.001] ------- [14:255 -1:255 32 0] 
r 0.057585986 _11_ MAC  --- 4 BellLabsTrace 48 [0 ffffffff e 800] [energy 999.997306 ei 0.002 es 0.000 et 0.000 er 0.001] ------- [14:255 -1:255 32 0] 
r 0.057585986 _10_ MAC  --- 4 BellLabsTrace 48 [0 ffffffff e 800] [energy 999.997306 ei 0.002 es 0.000 et 0.000 er 0.001] ------- [14:255 -1:255 32 0] 
r 0.057585986 _16_ MAC  --- 4 BellLabsTrace 48 [0 ffffffff e 800] [energy 999.997306 ei 0.002 es 0.000 et 0.000 er 0.001] ------- [14:255 -1:255 32 0] 
r 0.057585986 _17_ MAC  --- 4 BellLabsTrace 48 [0 ffffffff e 800] [energy 999.997442 ei 0.002 es 0.000 et 0.000 er 0.001] ------- [14:255 -1:255 32 0] 
r 0.057586069 _8_ MAC  --- 4 BellLabsTrace 48 [0 ffffffff e 800] [energy 999.997306 ei 0.002 es 0.000 et 0.000 er 0.001] ------- [14:255 -1:255 32 0] 
r 0.057586069 _20_ MAC  --- 4 BellLabsTrace 48 [0 ffffffff e 800] [energy 999.997442 ei 0.002 es 0.000 et 0.000 er 0.001] ------- [14:255 -1:255 32 0] 
r 0.057586236 _13_ MAC  --- 4 BellLabsTrace 48 [0 ffffffff e 800] [energy 999.997306 ei 0.002 es 0.000 et 0.000 er 0.001] ------- [14:255 -1:255 32 0] 
r 0.057586390 _5_ MAC  --- 4 BellLabsTrace 48 [0 ffffffff e 800] [energy 999.997306 ei 0.002 es 0.000 et 0.000 er 0.001] ------- [14:255 -1:255 32 0] 
r 0.057586390 _4_ MAC  --- 4 BellLabsTrace 48 [0 ffffffff e 800] [energy 999.997306 ei 0.002 es 0.000 et 0.000 er 0.001] ------- [14:255 -1:255 32 0] 
r 0.057586390 _22_ MAC  --- 4 BellLabsTrace 48 [0 ffffffff e 800] [energy 999.997368 ei 0.002 es 0.000 et 0.000 er 0.000] ------- [14:255 -1:255 32 0] 
r 0.057586390 _23_ MAC  --- 4 BellLabsTrace 48 [0 ffffffff e 800] [energy 999.997577 ei 0.002 es 0.000 et 0.000 er 0.000] ------- [14:255 -1:255 32 0] 
r 0.057610903 _27_ RTR  --- 4 BellLabsTrace 48 [0 ffffffff e 800] [energy 999.997306 ei 0.002 es 0.000 et 0.000 er 0.001] ------- [14:255 -1:255 32 0] 
r 0.057610986 _11_ RTR  --- 4 BellLabsTrace 48 [0 ffffffff e 800] [energy 999.997306 ei 0.002 es 0.000 et 0.000 er 0.001] ------- [14:255 -1:255 32 0] 
r 0.057610986 _10_ RTR  --- 4 BellLabsTrace 48 [0 ffffffff e 800] [energy 999.997306 ei 0.002 es 0.000 et 0.000 er 0.001] ------- [14:255 -1:255 32 0] 
r 0.057610986 _16_ RTR  --- 4 BellLabsTrace 48 [0 ffffffff e 800] [energy 999.997306 ei 0.002 es 0.000 et 0.000 er 0.001] ------- [14:255 -1:255 32 0] 
r 0.057610986 _17_ RTR  --- 4 BellLabsTrace 48 [0 ffffffff e 800] [energy 999.997442 ei 0.002 es 0.000 et 0.000 er 0.001] ------- [14:255 -1:255 32 0] 
r 0.057611069 _8_ RTR  --- 4 BellLabsTrace 48 [0 ffffffff e 800] [energy 999.997306 ei 0.002 es 0.000 et 0.000 er 0.001] ------- [14:255 -1:255 32 0] 
r 0.057611069 _20_ RTR  --- 4 BellLabsTrace 48 [0 ffffffff e 800] [energy 999.997442 ei 0.002 es 0.000 et 0.000 er 0.001] ------- [14:255 -1:255 32 0] 
r 0.057611236 _13_ RTR  --- 4 BellLabsTrace 48 [0 ffffffff e 800] [energy 999.997306 ei 0.002 es 0.000 et 0.000 er 0.001] ------- [14:255 -1:255 32 0] 
r 0.057611390 _5_ RTR  --- 4 BellLabsTrace 48 [0 ffffffff e 800] [energy 999.997306 ei 0.002 es 0.000 et 0.000 er 0.001] ------- [14:255 -1:255 32 0] 
r 0.057611390 _4_ RTR  --- 4 BellLabsTrace 48 [0 ffffffff e 800] [energy 999.997306 ei 0.002 es 0.000 et 0.000 er 0.001] ------- [14:255 -1:255 32 0] 
r 0.057611390 _22_ RTR  --- 4 BellLabsTrace 48 [0 ffffffff e 800] [energy 999.997368 ei 0.002 es 0.000 et 0.000 er 0.000] ------- [14:255 -1:255 32 0] 
r 0.057611390 _23_ RTR  --- 4 BellLabsTrace 48 [0 ffffffff e 800] [energy 999.997577 ei 0.002 es 0.000 et 0.000 er 0.000] ------- [14:255 -1:255 32 0] 
s 0.057796390 _5_ MAC  --- 5 BellLabsTrace 106 [0 ffffffff 5 800] [energy 999.997306 ei 0.002 es 0.000 et 0.000 er 0.001] ------- [5:255 -1:255 32 0] 
N -t 0.057797 -n 2 -e 999.997133
N -t 0.057797 -n 8 -e 999.997133
N -t 0.057797 -n 11 -e 999.997133
N -t 0.057797 -n 4 -e 999.997133
N -t 0.057797 -n 14 -e 999.997060
N -t 0.057797 -n 10 -e 999.997133
N -t 0.057797 -n 17 -e 999.997269
N -t 0.057797 -n 27 -e 999.997133
N -t 0.057797 -n 1 -e 999.997060
N -t 0.057797 -n 7 -e 999.997133
N -t 0.057798 -n 16 -e 999.997133
N -t 0.057798 -n 13 -e 999.997133
N -t 0.057798 -n 20 -e 999.997269
N -t 0.057798 -n 3 -e 999.997133
N -t 0.057798 -n 9 -e 999.997133
N -t 0.057798 -n 23 -e 999.997405
N -t 0.057798 -n 19 -e 999.997133
N -t 0.057798 -n 22 -e 999.997195
N -t 0.057798 -n 15 -e 999.997133
N -t 0.057798 -n 0 -e 999.997195
N -t 0.057798 -n 6 -e 999.997133
N -t 0.057798 -n 26 -e 999.997405
N -t 0.057798 -n 12 -e 999.997060
r 0.058644807 _2_ MAC  --- 5 BellLabsTrace 48 [0 ffffffff 5 800] [energy 999.997133 ei 0.002 es 0.000 et 0.000 er 0.001] ------- [5:255 -1:255 32 0] 
r 0.058644807 _8_ MAC  --- 5 BellLabsTrace 48 [0 ffffffff 5 800] [energy 999.997133 ei 0.002 es 0.000 et 0.000 er 0.001] ------- [5:255 -1:255 32 0] 
r 0.058644890 _11_ MAC  --- 5 BellLabsTrace 48 [0 ffffffff 5 800] [energy 999.997133 ei 0.002 es 0.000 et 0.000 er 0.001] ------- [5:255 -1:255 32 0] 
r 0.058645057 _4_ MAC  --- 5 BellLabsTrace 48 [0 ffffffff 5 800] [energy 999.997133 ei 0.002 es 0.000 et 0.000 er 0.001] ------- [5:255 -1:255 32 0] 
r 0.058645211 _14_ MAC  --- 5 BellLabsTrace 48 [0 ffffffff 5 800] [energy 999.997060 ei 0.002 es 0.000 et 0.000 er 0.001] ------- [5:255 -1:255 32 0] 
r 0.058669807 _2_ RTR  --- 5 BellLabsTrace 48 [0 ffffffff 5 800] [energy 999.997133 ei 0.002 es 0.000 et 0.000 er 0.001] ------- [5:255 -1:255 32 0] 
r 0.058669807 _8_ RTR  --- 5 BellLabsTrace 48 [0 ffffffff 5 800] [energy 999.997133 ei 0.002 es 0.000 et 0.000 er 0.001] ------- [5:255 -1:255 32 0] 
r 0.058669890 _11_ RTR  --- 5 BellLabsTrace 48 [0 ffffffff 5 800] [energy 999.997133 ei 0.002 es 0.000 et 0.000 er 0.001] ------- [5:255 -1:255 32 0] 
r 0.058670057 _4_ RTR  --- 5 BellLabsTrace 48 [0 ffffffff 5 800] [energy 999.997133 ei 0.002 es 0.000 et 0.000 er 0.001] ------- [5:255 -1:255 32 0] 
r 0.058670211 _14_ RTR  --- 5 BellLabsTrace 48 [0 ffffffff 5 800] [energy 999.997060 ei 0.002 es 0.000 et 0.000 er 0.001] ------- [5:255 -1:255 32 0] 
s 0.082072703 _4_ RTR  --- 6 BellLabsTrace 48 [0 0 0 0] [energy 999.997133 ei 0.002 es 0.000 et 0.000 er 0.001] ------- [4:255 -1:255 32 0] 
s 0.082267703 _4_ MAC  --- 6 BellLabsTrace 106 [0 ffffffff 4 800] [energy 999.997133 ei 0.002 es 0.000 et 0.000 er 0.001] ------- [4:255 -1:255 32 0] 
N -t 0.082268 -n 2 -e 999.996141
N -t 0.082268 -n 1 -e 999.996068
N -t 0.082268 -n 7 -e 999.996141
N -t 0.082268 -n 8 -e 999.996141
N -t 0.082268 -n 10 -e 999.996141
N -t 0.082268 -n 3 -e 999.996141
N -t 0.082268 -n 5 -e 999.996068
N -t 0.082268 -n 27 -e 999.996141
N -t 0.082269 -n 13 -e 999.996141
N -t 0.082269 -n 14 -e 999.996068
N -t 0.082269 -n 9 -e 999.996141
N -t 0.082269 -n 11 -e 999.996141
N -t 0.082269 -n 16 -e 999.996141
N -t 0.082269 -n 0 -e 999.996203
N -t 0.082269 -n 6 -e 999.996141
N -t 0.082269 -n 15 -e 999.996141
N -t 0.082269 -n 17 -e 999.996277
N -t 0.082269 -n 12 -e 999.996068
N -t 0.082269 -n 19 -e 999.996141
N -t 0.082269 -n 20 -e 999.996277
N -t 0.082269 -n 22 -e 999.996203
N -t 0.082269 -n 18 -e 999.996277
N -t 0.082269 -n 21 -e 999.996277
N -t 0.082269 -n 23 -e 999.996412
N -t 0.082269 -n 25 -e 999.996548
N -t 0.082269 -n 26 -e 999.996412
r 0.083116120 _2_ MAC  --- 6 BellLabsTrace 48 [0 ffffffff 4 800] [energy 999.996141 ei 0.003 es 0.000 et 0.000 er 0.001] ------- [4:255 -1:255 32 0] 
r 0.083116120 _1_ MAC  --- 6 BellLabsTrace 48 [0 ffffffff 4 800] [energy 999.996068 ei 0.003 es 0.000 et 0.000 er 0.001] ------- [4:255 -1:255 32 0] 
r 0.083116120 _7_ MAC  --- 6 BellLabsTrace 48 [0 ffffffff 4 800] [energy 999.996141 ei 0.003 es 0.000 et 0.000 er 0.001] ------- [4:255 -1:255 32 0] 
r 0.083116120 _8_ MAC  --- 6 BellLabsTrace 48 [0 ffffffff 4 800] [energy 999.996141 ei 0.003 es 0.000 et 0.000 er 0.001] ------- [4:255 -1:255 32 0] 
r 0.083116203 _10_ MAC  --- 6 BellLabsTrace 48 [0 ffffffff 4 800] [energy 999.996141 ei 0.003 es 0.000 et 0.000 er 0.001] ------- [4:255 -1:255 32 0] 
r 0.083116370 _3_ MAC  --- 6 BellLabsTrace 48 [0 ffffffff 4 800] [energy 999.996141 ei 0.003 es 0.000 et 0.000 er 0.001] ------- [4:255 -1:255 32 0] 
r 0.083116370 _5_ MAC  --- 6 BellLabsTrace 48 [0 ffffffff 4 800] [energy 999.996068 ei 0.003 es 0.000 et 0.000 er 0.001] ------- [4:255 -1:255 32 0] 
r 0.083116453 _27_ MAC  --- 6 BellLabsTrace 48 [0 ffffffff 4 800] [energy 999.996141 ei 0.003 es 0.000 et 0.000 er 0.001] ------- [4:255 -1:255 32 0] 
r 0.083116524 _13_ MAC  --- 6 BellLabsTrace 48 [0 ffffffff 4 800] [energy 999.996141 ei 0.003 es 0.000 et 0.000 er 0.001] ------- [4:255 -1:255 32 0] 
r 0.083116524 _14_ MAC  --- 6 BellLabsTrace 48 [0 ffffffff 4 800] [energy 999.996068 ei 0.003 es 0.000 et 0.000 er 0.001] ------- [4:255 -1:255 32 0] 
r 0.083141120 _2_ RTR  --- 6 BellLabsTrace 48 [0 ffffffff 4 800] [energy 999.996141 ei 0.003 es 0.000 et 0.000 er 0.001] ------- [4:255 -1:255 32 0] 
r 0.083141120 _1_ RTR  --- 6 BellLabsTrace 48 [0 ffffffff 4 800] [energy 999.996068 ei 0.003 es 0.000 et 0.000 er 0.001] ------- [4:255 -1:255 32 0] 
r 0.083141120 _7_ RTR  --- 6 BellLabsTrace 48 [0 ffffffff 4 800] [energy 999.996141 ei 0.003 es 0.000 et 0.000 er 0.001] ------- [4:255 -1:255 32 0] 
r 0.083141120 _8_ RTR  --- 6 BellLabsTrace 48 [0 ffffffff 4 800] [energy 999.996141 ei 0.003 es 0.000 et 0.000 er 0.001] ------- [4:255 -1:255 32 0] 
r 0.083141203 _10_ RTR  --- 6 BellLabsTrace 48 [0 ffffffff 4 800] [energy 999.996141 ei 0.003 es 0.000 et 0.000 er 0.001] ------- [4:255 -1:255 32 0] 
r 0.083141370 _3_ RTR  --- 6 BellLabsTrace 48 [0 ffffffff 4 800] [energy 999.996141 ei 0.003 es 0.000 et 0.000 er 0.001] ------- [4:255 -1:255 32 0] 
r 0.083141370 _5_ RTR  --- 6 BellLabsTrace 48 [0 ffffffff 4 800] [energy 999.996068 ei 0.003 es 0.000 et 0.000 er 0.001] ------- [4:255 -1:255 32 0] 
r 0.083141453 _27_ RTR  --- 6 BellLabsTrace 48 [0 ffffffff 4 800] [energy 999.996141 ei 0.003 es 0.000 et 0.000 er 0.001] ------- [4:255 -1:255 32 0] 
r 0.083141524 _13_ RTR  --- 6 BellLabsTrace 48 [0 ffffffff 4 800] [energy 999.996141 ei 0.003 es 0.000 et 0.000 er 0.001] ------- [4:255 -1:255 32 0] 
r 0.083141524 _14_ RTR  --- 6 BellLabsTrace 48 [0 ffffffff 4 800] [energy 999.996068 ei 0.003 es 0.000 et 0.000 er 0.001] ------- [4:255 -1:255 32 0] 
s 0.087402627 _6_ RTR  --- 7 BellLabsTrace 48 [0 0 0 0] [energy 999.996141 ei 0.003 es 0.000 et 0.000 er 0.001] ------- [6:255 -1:255 32 0] 
s 0.087697627 _6_ MAC  --- 7 BellLabsTrace 106 [0 ffffffff 6 800] [energy 999.996141 ei 0.003 es 0.000 et 0.000 er 0.001] ------- [6:255 -1:255 32 0] 
N -t 0.087698 -n 3 -e 999.995815
N -t 0.087698 -n 9 -e 999.995815
N -t 0.087698 -n 0 -e 999.995877
N -t 0.087698 -n 12 -e 999.995742
N -t 0.087698 -n 7 -e 999.995815
N -t 0.087698 -n 15 -e 999.995815
N -t 0.087698 -n 1 -e 999.995742
N -t 0.087698 -n 13 -e 999.995815
N -t 0.087699 -n 18 -e 999.995951
N -t 0.087699 -n 4 -e 999.995742
N -t 0.087699 -n 10 -e 999.995815
N -t 0.087699 -n 27 -e 999.995815
N -t 0.087699 -n 19 -e 999.995815
N -t 0.087699 -n 16 -e 999.995815
N -t 0.087699 -n 21 -e 999.995951
N -t 0.087699 -n 8 -e 999.995815
N -t 0.087699 -n 2 -e 999.995815
N -t 0.087699 -n 14 -e 999.995742
N -t 0.087699 -n 24 -e 999.996358
N -t 0.087699 -n 22 -e 999.995877
N -t 0.087699 -n 25 -e 999.996222
N -t 0.087699 -n 20 -e 999.995951
N -t 0.087699 -n 5 -e 999.995742
N -t 0.087699 -n 11 -e 999.995815
N -t 0.087699 -n 17 -e 999.995951
r 0.088546044 _3_ MAC  --- 7 BellLabsTrace 48 [0 ffffffff 6 800] [energy 999.995815 ei 0.003 es 0.000 et 0.000 er 0.001] ------- [6:255 -1:255 32 0] 
r 0.088546044 _9_ MAC  --- 7 BellLabsTrace 48 [0 ffffffff 6 800] [energy 999.995815 ei 0.003 es 0.000 et 0.000 er 0.001] ------- [6:255 -1:255 32 0] 
r 0.088546127 _0_ MAC  --- 7 BellLabsTrace 48 [0 ffffffff 6 800] [energy 999.995877 ei 0.003 es 0.000 et 0.000 er 0.001] ------- [6:255 -1:255 32 0] 
r 0.088546127 _12_ MAC  --- 7 BellLabsTrace 48 [0 ffffffff 6 800] [energy 999.995742 ei 0.003 es 0.000 et 0.000 er 0.001] ------- [6:255 -1:255 32 0] 
r 0.088546294 _7_ MAC  --- 7 BellLabsTrace 48 [0 ffffffff 6 800] [energy 999.995815 ei 0.003 es 0.000 et 0.000 er 0.001] ------- [6:255 -1:255 32 0] 
r 0.088546448 _15_ MAC  --- 7 BellLabsTrace 48 [0 ffffffff 6 800] [energy 999.995815 ei 0.003 es 0.000 et 0.000 er 0.001] ------- [6:255 -1:255 32 0] 
r 0.088571044 _3_ RTR  --- 7 BellLabsTrace 48 [0 ffffffff 6 800] [energy 999.995815 ei 0.003 es 0.000 et 0.000 er 0.001] ------- [6:255 -1:255 32 0] 
r 0.088571044 _9_ RTR  --- 7 BellLabsTrace 48 [0 ffffffff 6 800] [energy 999.995815 ei 0.003 es 0.000 et 0.000 er 0.001] ------- [6:255 -1:255 32 0] 
r 0.088571127 _0_ RTR  --- 7 BellLabsTrace 48 [0 ffffffff 6 800] [energy 999.995877 ei 0.003 es 0.000 et 0.000 er 0.001] ------- [6:255 -1:255 32 0] 
r 0.088571127 _12_ RTR  --- 7 BellLabsTrace 48 [0 ffffffff 6 800] [energy 999.995742 ei 0.003 es 0.000 et 0.000 er 0.001] ------- [6:255 -1:255 32 0] 
r 0.088571294 _7_ RTR  --- 7 BellLabsTrace 48 [0 ffffffff 6 800] [energy 999.995815 ei 0.003 es 0.000 et 0.000 er 0.001] ------- [6:255 -1:255 32 0] 
r 0.088571448 _15_ RTR  --- 7 BellLabsTrace 48 [0 ffffffff 6 800] [energy 999.995815 ei 0.003 es 0.000 et 0.000 er 0.001] ------- [6:255 -1:255 32 0] 
s 0.120612814 _10_ RTR  --- 8 BellLabsTrace 48 [0 0 0 0] [energy 999.995815 ei 0.003 es 0.000 et 0.000 er 0.001] ------- [10:255 -1:255 32 0] 
s 0.120827814 _10_ MAC  --- 8 BellLabsTrace 106 [0 ffffffff a 800] [energy 999.995815 ei 0.003 es 0.000 et 0.000 er 0.001] ------- [10:255 -1:255 32 0] 
N -t 0.120828 -n 27 -e 999.994520
N -t 0.120828 -n 8 -e 999.994520
N -t 0.120828 -n 7 -e 999.994520
N -t 0.120828 -n 13 -e 999.994520
N -t 0.120828 -n 14 -e 999.994447
N -t 0.120828 -n 4 -e 999.994447
N -t 0.120828 -n 16 -e 999.994520
N -t 0.120828 -n 9 -e 999.994520
N -t 0.120828 -n 11 -e 999.994520
N -t 0.120829 -n 2 -e 999.994520
N -t 0.120829 -n 1 -e 999.994447
N -t 0.120829 -n 19 -e 999.994520
N -t 0.120829 -n 20 -e 999.994656
N -t 0.120829 -n 5 -e 999.994447
N -t 0.120829 -n 3 -e 999.994520
N -t 0.120829 -n 15 -e 999.994520
N -t 0.120829 -n 17 -e 999.994656
N -t 0.120829 -n 22 -e 999.994582
N -t 0.120829 -n 6 -e 999.994447
N -t 0.120829 -n 12 -e 999.994447
N -t 0.120829 -n 21 -e 999.994656
N -t 0.120829 -n 23 -e 999.994927
N -t 0.120829 -n 0 -e 999.994582
N -t 0.120829 -n 18 -e 999.994656
N -t 0.120829 -n 25 -e 999.994927
N -t 0.120829 -n 26 -e 999.994927
N -t 0.120829 -n 24 -e 999.995063
r 0.121676064 _27_ MAC  --- 8 BellLabsTrace 48 [0 ffffffff a 800] [energy 999.994520 ei 0.004 es 0.000 et 0.000 er 0.001] ------- [10:255 -1:255 32 0] 
r 0.121676231 _8_ MAC  --- 8 BellLabsTrace 48 [0 ffffffff a 800] [energy 999.994520 ei 0.004 es 0.000 et 0.000 er 0.001] ------- [10:255 -1:255 32 0] 
r 0.121676231 _7_ MAC  --- 8 BellLabsTrace 48 [0 ffffffff a 800] [energy 999.994520 ei 0.004 es 0.000 et 0.000 er 0.001] ------- [10:255 -1:255 32 0] 
r 0.121676231 _13_ MAC  --- 8 BellLabsTrace 48 [0 ffffffff a 800] [energy 999.994520 ei 0.004 es 0.000 et 0.000 er 0.001] ------- [10:255 -1:255 32 0] 
r 0.121676231 _14_ MAC  --- 8 BellLabsTrace 48 [0 ffffffff a 800] [energy 999.994447 ei 0.004 es 0.000 et 0.000 er 0.001] ------- [10:255 -1:255 32 0] 
r 0.121676314 _4_ MAC  --- 8 BellLabsTrace 48 [0 ffffffff a 800] [energy 999.994447 ei 0.004 es 0.000 et 0.000 er 0.001] ------- [10:255 -1:255 32 0] 
r 0.121676314 _16_ MAC  --- 8 BellLabsTrace 48 [0 ffffffff a 800] [energy 999.994520 ei 0.004 es 0.000 et 0.000 er 0.001] ------- [10:255 -1:255 32 0] 
r 0.121676481 _9_ MAC  --- 8 BellLabsTrace 48 [0 ffffffff a 800] [energy 999.994520 ei 0.004 es 0.000 et 0.000 er 0.001] ------- [10:255 -1:255 32 0] 
r 0.121676481 _11_ MAC  --- 8 BellLabsTrace 48 [0 ffffffff a 800] [energy 999.994520 ei 0.004 es 0.000 et 0.000 er 0.001] ------- [10:255 -1:255 32 0] 