M 0.00000 0 (158.56, 240.35, 0.00), (513.60, 527.49), 0.00
M 0.00000 1 (776.71, 632.29, 0.00), (143.69, 252.04), 0.00
M 0.00000 2 (556.74, 139.28, 0.00), (252.30, 10.96), 0.00
M 0.00000 3 (330.86, 458.07, 0.00), (794.35, 461.17), 0.00
M 0.00000 4 (304.47, 516.69, 0.00), (590.49, 331.14), 0.00
M 0.00000 5 (352.42, 27.21, 0.00), (18.42, 26.67), 0.00
M 0.00000 6 (330.74, 576.61, 0.00), (750.27, 454.51), 0.00
M 0.00000 7 (489.30, 459.05, 0.00), (10.66, 291.84), 0.00
M 0.00000 8 (767.61, 259.88, 0.00), (381.79, 530.77), 0.00
M 0.00000 9 (11.26, 290.75, 0.00), (510.64, 699.00), 0.00
M 0.00000 10 (503.41, 60.31, 0.00), (699.43, 369.48), 0.00
M 0.00000 11 (612.99, 504.66, 0.00), (294.37, 609.42), 0.00
M 0.00000 12 (7.92, 61.17, 0.00), (598.62, 637.31), 0.00
M 0.00000 13 (713.67, 286.96, 0.00), (615.70, 10.62), 0.00
M 0.00000 14 (349.85, 792.74, 0.00), (332.96, 546.94), 0.00
M 0.00000 15 (318.18, 350.49, 0.00), (111.08, 779.73), 0.00
M 0.00000 16 (405.55, 753.87, 0.00), (768.24, 59.36), 0.00
M 0.00000 17 (127.59, 442.66, 0.00), (643.46, 147.05), 0.00
M 0.00000 18 (147.71, 405.39, 0.00), (131.81, 595.56), 0.00
M 0.00000 19 (1.77, 478.30, 0.00), (290.23, 777.79), 0.00
M 0.00000 20 (543.07, 421.19, 0.00), (459.41, 207.42), 0.00
M 0.00000 21 (24.88, 499.68, 0.00), (42.63, 280.30), 0.00
M 0.00000 22 (375.83, 199.08, 0.00), (15.28, 264.35), 0.00
M 0.00000 23 (388.51, 363.44, 0.00), (67.14, 644.33), 0.00
M 0.00000 24 (325.39, 586.97, 0.00), (625.19, 230.91), 0.00
M 0.00000 25 (580.57, 374.75, 0.00), (763.90, 506.38), 0.00
M 0.00000 26 (347.06, 77.69, 0.00), (631.94, 381.96), 0.00
M 0.00000 27 (170.67, 352.71, 0.00), (529.58, 150.97), 0.00
M 0.00000 28 (626.83, 383.31, 0.00), (229.84, 643.97), 0.00
M 0.00000 29 (125.13, 214.67, 0.00), (671.99, 49.59), 0.00
s 0.000087269 _30_ RTR  --- 0 OLSR 48 [0 0 0 0] [energy 1000.000000 ei 0.000 es 0.000 et 0.000 er 0.000] ------- [30:255 -1:255 32 0] [1 0 [HELLO 30 0 0]]
s 0.000169789 _0_ RTR  --- 1 OLSR 48 [0 0 0 0] [energy 1000.000000 ei 0.000 es 0.000 et 0.000 er 0.000] ------- [0:255 -1:255 32 0] [1 0 [HELLO 0 0 0]]
s 0.000282269 _30_ MAC  --- 0 OLSR 106 [0 ffffffff 1e 800] [energy 1000.000000 ei 0.000 es 0.000 et 0.000 er 0.000] ------- [30:255 -1:255 32 0] [1 0 [HELLO 30 0 0]]
N -t 0.000283 -n 12 -e 999.999825
N -t 0.000283 -n 29 -e 999.999825
N -t 0.000283 -n 0 -e 999.999825
N -t 0.000283 -n 26 -e 999.999825
N -t 0.000283 -n 5 -e 999.999825
N -t 0.000283 -n 9 -e 999.999825
N -t 0.000283 -n 27 -e 999.999825
N -t 0.000283 -n 22 -e 999.999825
N -t 0.000283 -n 18 -e 999.999825
N -t 0.000284 -n 15 -e 999.999825
N -t 0.000284 -n 17 -e 999.999825
N -t 0.000284 -n 10 -e 999.999825
N -t 0.000284 -n 23 -e 999.999825
N -t 0.000284 -n 19 -e 999.999825
N -t 0.000284 -n 21 -e 999.999825
N -t 0.000284 -n 2 -e 999.999825
N -t 0.000284 -n 3 -e 999.999825
N -t 0.000284 -n 4 -e 999.999825
r 0.001130579 _12_ MAC  --- 0 OLSR 48 [0 ffffffff 1e 800] [energy 999.999825 ei 0.000 es 0.000 et 0.000 er 0.000] ------- [30:255 -1:255 32 0] [1 0 [HELLO 30 0 0]]
r 0.001130825 _29_ MAC  --- 0 OLSR 48 [0 ffffffff 1e 800] [energy 999.999825 ei 0.000 es 0.000 et 0.000 er 0.000] ------- [30:255 -1:255 32 0] [1 0 [HELLO 30 0 0]]
r 0.001130933 _0_ MAC  --- 0 OLSR 48 [0 ffffffff 1e 800] [energy 999.999825 ei 0.000 es 0.000 et 0.000 er 0.000] ------- [30:255 -1:255 32 0] [1 0 [HELLO 30 0 0]]
r 0.001131098 _26_ MAC  --- 0 OLSR 48 [0 ffffffff 1e 800] [energy 999.999825 ei 0.000 es 0.000 et 0.000 er 0.000] ------- [30:255 -1:255 32 0] [1 0 [HELLO 30 0 0]]
r 0.001155579 _12_ RTR  --- 0 OLSR 48 [0 ffffffff 1e 800] [energy 999.999825 ei 0.000 es 0.000 et 0.000 er 0.000] ------- [30:255 -1:255 32 0] [1 0 [HELLO 30 0 0]]
r 0.001155825 _29_ RTR  --- 0 OLSR 48 [0 ffffffff 1e 800] [energy 999.999825 ei 0.000 es 0.000 et 0.000 er 0.000] ------- [30:255 -1:255 32 0] [1 0 [HELLO 30 0 0]]
r 0.001155933 _0_ RTR  --- 0 OLSR 48 [0 ffffffff 1e 800] [energy 999.999825 ei 0.000 es 0.000 et 0.000 er 0.000] ------- [30:255 -1:255 32 0] [1 0 [HELLO 30 0 0]]
r 0.001156098 _26_ RTR  --- 0 OLSR 48 [0 ffffffff 1e 800] [energy 999.999825 ei 0.000 es 0.000 et 0.000 er 0.000] ------- [30:255 -1:255 32 0] [1 0 [HELLO 30 0 0]]
s 0.001320933 _0_ MAC  --- 1 OLSR 106 [0 ffffffff 0 800] [energy 999.999825 ei 0.000 es 0.000 et 0.000 er 0.000] ------- [0:255 -1:255 32 0] [1 0 [HELLO 0 0 0]]
N -t 0.001321 -n 29 -e 999.999653
N -t 0.001321 -n 27 -e 999.999653
N -t 0.001321 -n 9 -e 999.999653
N -t 0.001321 -n 18 -e 999.999653
N -t 0.001322 -n 15 -e 999.999653
N -t 0.001322 -n 30 -e 999.999579
N -t 0.001322 -n 17 -e 999.999653
N -t 0.001322 -n 22 -e 999.999653
N -t 0.001322 -n 12 -e 999.999653
N -t 0.001322 -n 26 -e 999.999653
N -t 0.001322 -n 23 -e 999.999653
N -t 0.001322 -n 3 -e 999.999653
N -t 0.001322 -n 19 -e 999.999653
N -t 0.001322 -n 5 -e 999.999653
N -t 0.001322 -n 21 -e 999.999653
N -t 0.001322 -n 4 -e 999.999653
N -t 0.001322 -n 6 -e 999.999788
N -t 0.001322 -n 24 -e 999.999788
N -t 0.001322 -n 10 -e 999.999653
N -t 0.001322 -n 7 -e 999.999788
N -t 0.001322 -n 2 -e 999.999653
N -t 0.001322 -n 20 -e 999.999788
N -t 0.001322 -n 25 -e 999.999788
N -t 0.001323 -n 28 -e 999.999788
N -t 0.001323 -n 11 -e 999.999788
r 0.002169074 _29_ MAC  --- 1 OLSR 48 [0 ffffffff 0 800] [energy 999.999653 ei 0.000 es 0.000 et 0.000 er 0.000] ------- [0:255 -1:255 32 0] [1 0 [HELLO 0 0 0]]
r 0.002169310 _27_ MAC  --- 1 OLSR 48 [0 ffffffff 0 800] [energy 999.999653 ei 0.000 es 0.000 et 0.000 er 0.000] ------- [0:255 -1:255 32 0] [1 0 [HELLO 0 0 0]]
r 0.002169452 _9_ MAC  --- 1 OLSR 48 [0 ffffffff 0 800] [energy 999.999653 ei 0.000 es 0.000 et 0.000 er 0.000] ------- [0:255 -1:255 32 0] [1 0 [HELLO 0 0 0]]
r 0.002169485 _18_ MAC  --- 1 OLSR 48 [0 ffffffff 0 800] [energy 999.999653 ei 0.000 es 0.000 et 0.000 er 0.000] ------- [0:255 -1:255 32 0] [1 0 [HELLO 0 0 0]]
r 0.002169580 _15_ MAC  --- 1 OLSR 48 [0 ffffffff 0 800] [energy 999.999653 ei 0.000 es 0.000 et 0.000 er 0.000] ------- [0:255 -1:255 32 0] [1 0 [HELLO 0 0 0]]
r 0.002169597 _30_ MAC  --- 1 OLSR 48 [0 ffffffff 0 800] [energy 999.999579 ei 0.000 es 0.000 et 0.000 er 0.000] ------- [0:255 -1:255 32 0] [1 0 [HELLO 0 0 0]]
r 0.002169616 _17_ MAC  --- 1 OLSR 48 [0 ffffffff 0 800] [energy 999.999653 ei 0.000 es 0.000 et 0.000 er 0.000] ------- [0:255 -1:255 32 0] [1 0 [HELLO 0 0 0]]
r 0.002169671 _22_ MAC  --- 1 OLSR 48 [0 ffffffff 0 800] [energy 999.999653 ei 0.000 es 0.000 et 0.000 er 0.000] ------- [0:255 -1:255 32 0] [1 0 [HELLO 0 0 0]]
r 0.002169714 _12_ MAC  --- 1 OLSR 48 [0 ffffffff 0 800] [energy 999.999653 ei 0.000 es 0.000 et 0.000 er 0.000] ------- [0:255 -1:255 32 0] [1 0 [HELLO 0 0 0]]
r 0.002169763 _26_ MAC  --- 1 OLSR 48 [0 ffffffff 0 800] [energy 999.999653 ei 0.000 es 0.000 et 0.000 er 0.000] ------- [0:255 -1:255 32 0] [1 0 [HELLO 0 0 0]]
r 0.002194074 _29_ RTR  --- 1 OLSR 48 [0 ffffffff 0 800] [energy 999.999653 ei 0.000 es 0.000 et 0.000 er 0.000] ------- [0:255 -1:255 32 0] [1 0 [HELLO 0 0 0]]
r 0.002194310 _27_ RTR  --- 1 OLSR 48 [0 ffffffff 0 800] [energy 999.999653 ei 0.000 es 0.000 et 0.000 er 0.000] ------- [0:255 -1:255 32 0] [1 0 [HELLO 0 0 0]]
r 0.002194452 _9_ RTR  --- 1 OLSR 48 [0 ffffffff 0 800] [energy 999.999653 ei 0.000 es 0.000 et 0.000 er 0.000] ------- [0:255 -1:255 32 0] [1 0 [HELLO 0 0 0]]
r 0.002194485 _18_ RTR  --- 1 OLSR 48 [0 ffffffff 0 800] [energy 999.999653 ei 0.000 es 0.000 et 0.000 er 0.000] ------- [0:255 -1:255 32 0] [1 0 [HELLO 0 0 0]]
r 0.002194580 _15_ RTR  --- 1 OLSR 48 [0 ffffffff 0 800] [energy 999.999653 ei 0.000 es 0.000 et 0.000 er 0.000] ------- [0:255 -1:255 32 0] [1 0 [HELLO 0 0 0]]
r 0.002194597 _30_ RTR  --- 1 OLSR 48 [0 ffffffff 0 800] [energy 999.999579 ei 0.000 es 0.000 et 0.000 er 0.000] ------- [0:255 -1:255 32 0] [1 0 [HELLO 0 0 0]]
r 0.002194616 _17_ RTR  --- 1 OLSR 48 [0 ffffffff 0 800] [energy 999.999653 ei 0.000 es 0.000 et 0.000 er 0.000] ------- [0:255 -1:255 32 0] [1 0 [HELLO 0 0 0]]
r 0.002194671 _22_ RTR  --- 1 OLSR 48 [0 ffffffff 0 800] [energy 999.999653 ei 0.000 es 0.000 et 0.000 er 0.000] ------- [0:255 -1:255 32 0] [1 0 [HELLO 0 0 0]]
r 0.002194714 _12_ RTR  --- 1 OLSR 48 [0 ffffffff 0 800] [energy 999.999653 ei 0.000 es 0.000 et 0.000 er 0.000] ------- [0:255 -1:255 32 0] [1 0 [HELLO 0 0 0]]
r 0.002194763 _26_ RTR  --- 1 OLSR 48 [0 ffffffff 0 800] [energy 999.999653 ei 0.000 es 0.000 et 0.000 er 0.000] ------- [0:255 -1:255 32 0] [1 0 [HELLO 0 0 0]]
s 0.044061336 _1_ RTR  --- 2 OLSR 48 [0 0 0 0] [energy 1000.000000 ei 0.000 es 0.000 et 0.000 er 0.000] ------- [1:255 -1:255 32 0] [1 0 [HELLO 1 0 0]]
s 0.044276336 _1_ MAC  --- 2 OLSR 106 [0 ffffffff 1 800] [energy 1000.000000 ei 0.000 es 0.000 et 0.000 er 0.000] ------- [1:255 -1:255 32 0] [1 0 [HELLO 1 0 0]]
N -t 0.044277 -n 31 -e 999.998285
N -t 0.044277 -n 11 -e 999.998149
N -t 0.044277 -n 28 -e 999.998149
N -t 0.044277 -n 20 -e 999.998149
N -t 0.044277 -n 25 -e 999.998149
N -t 0.044277 -n 7 -e 999.998149
N -t 0.044278 -n 13 -e 999.998285
N -t 0.044278 -n 8 -e 999.998285
N -t 0.044278 -n 16 -e 999.998285
N -t 0.044278 -n 6 -e 999.998149
N -t 0.044278 -n 24 -e 999.998149
N -t 0.044278 -n 14 -e 999.998285
N -t 0.044278 -n 23 -e 999.998014
N -t 0.044278 -n 3 -e 999.998014
N -t 0.044278 -n 4 -e 999.998014
N -t 0.044278 -n 15 -e 999.998014
N -t 0.044278 -n 2 -e 999.998014
r 0.045124771 _31_ MAC  --- 2 OLSR 48 [0 ffffffff 1 800] [energy 999.998285 ei 0.002 es 0.000 et 0.000 er 0.000] ------- [1:255 -1:255 32 0] [1 0 [HELLO 1 0 0]]
r 0.045125028 _11_ MAC  --- 2 OLSR 48 [0 ffffffff 1 800] [energy 999.998149 ei 0.002 es 0.000 et 0.000 er 0.000] ------- [1:255 -1:255 32 0] [1 0 [HELLO 1 0 0]]
r 0.045149771 _31_ RTR  --- 2 OLSR 48 [0 ffffffff 1 800] [energy 999.998285 ei 0.002 es 0.000 et 0.000 er 0.000] ------- [1:255 -1:255 32 0] [1 0 [HELLO 1 0 0]]
r 0.045150028 _11_ RTR  --- 2 OLSR 48 [0 ffffffff 1 800] [energy 999.998149 ei 0.002 es 0.000 et 0.000 er 0.000] ------- [1:255 -1:255 32 0] [1 0 [HELLO 1 0 0]]
s 0.045678458 _22_ RTR  --- 3 OLSR 48 [0 0 0 0] [energy 999.999653 ei 0.000 es 0.000 et 0.000 er 0.000] ------- [22:255 -1:255 32 0] [1 0 [HELLO 22 0 0]]
s 0.046073458 _22_ MAC  --- 3 OLSR 106 [0 ffffffff 16 800] [energy 999.999653 ei 0.000 es 0.000 et 0.000 er 0.000] ------- [22:255 -1:255 32 0] [1 0 [HELLO 22 0 0]]
N -t 0.046074 -n 26 -e 999.997951
N -t 0.046074 -n 15 -e 999.997815
N -t 0.046074 -n 23 -e 999.997815
N -t 0.046074 -n 5 -e 999.997951
N -t 0.046074 -n 10 -e 999.997951
N -t 0.046074 -n 2 -e 999.997815
N -t 0.046074 -n 0 -e 999.997877
N -t 0.046074 -n 29 -e 999.997951
N -t 0.046074 -n 27 -e 999.997951
N -t 0.046074 -n 3 -e 999.997815
N -t 0.046074 -n 25 -e 999.997951
N -t 0.046074 -n 20 -e 999.997951
N -t 0.046074 -n 7 -e 999.997951
N -t 0.046074 -n 18 -e 999.997951
N -t 0.046074 -n 28 -e 999.997951
N -t 0.046075 -n 30 -e 999.997877
N -t 0.046075 -n 4 -e 999.997815
N -t 0.046075 -n 17 -e 999.997951
N -t 0.046075 -n 13 -e 999.998086
N -t 0.046075 -n 9 -e 999.997951
N -t 0.046075 -n 6 -e 999.997951
N -t 0.046075 -n 11 -e 999.997951
N -t 0.046075 -n 24 -e 999.997951
N -t 0.046075 -n 12 -e 999.997951
N -t 0.046075 -n 8 -e 999.998086
N -t 0.046075 -n 21 -e 999.997951
N -t 0.046075 -n 19 -e 999.997951
r 0.046921874 _26_ MAC  --- 3 OLSR 48 [0 ffffffff 16 800] [energy 999.997951 ei 0.002 es 0.000 et 0.000 er 0.000] ------- [22:255 -1:255 32 0] [1 0 [HELLO 22 0 0]]
r 0.046921998 _15_ MAC  --- 3 OLSR 48 [0 ffffffff 16 800] [energy 999.997815 ei 0.002 es 0.000 et 0.000 er 0.001] ------- [22:255 -1:255 32 0] [1 0 [HELLO 22 0 0]]
r 0.046922008 _23_ MAC  --- 3 OLSR 48 [0 ffffffff 16 800] [energy 999.997815 ei 0.002 es 0.000 et 0.000 er 0.001] ------- [22:255 -1:255 32 0] [1 0 [HELLO 22 0 0]]
r 0.046922036 _5_ MAC  --- 3 OLSR 48 [0 ffffffff 16 800] [energy 999.997951 ei 0.002 es 0.000 et 0.000 er 0.000] ------- [22:255 -1:255 32 0] [1 0 [HELLO 22 0 0]]
r 0.046922086 _10_ MAC  --- 3 OLSR 48 [0 ffffffff 16 800] [energy 999.997951 ei 0.002 es 0.000 et 0.000 er 0.000] ------- [22:255 -1:255 32 0] [1 0 [HELLO 22 0 0]]
r 0.046922093 _2_ MAC  --- 3 OLSR 48 [0 ffffffff 16 800] [energy 999.997815 ei 0.002 es 0.000 et 0.000 er 0.001] ------- [22:255 -1:255 32 0] [1 0 [HELLO 22 0 0]]
r 0.046922195 _0_ MAC  --- 3 OLSR 48 [0 ffffffff 16 800] [energy 999.997877 ei 0.002 es 0.000 et 0.000 er 0.000] ------- [22:255 -1:255 32 0] [1 0 [HELLO 22 0 0]]
r 0.046946874 _26_ RTR  --- 3 OLSR 48 [0 ffffffff 16 800] [energy 999.997951 ei 0.002 es 0.000 et 0.000 er 0.000] ------- [22:255 -1:255 32 0] [1 0 [HELLO 22 0 0]]
r 0.046946998 _15_ RTR  --- 3 OLSR 48 [0 ffffffff 16 800] [energy 999.997815 ei 0.002 es 0.000 et 0.000 er 0.001] ------- [22:255 -1:255 32 0] [1 0 [HELLO 22 0 0]]
r 0.046947008 _23_ RTR  --- 3 OLSR 48 [0 ffffffff 16 800] [energy 999.997815 ei 0.002 es 0.000 et 0.000 er 0.001] ------- [22:255 -1:255 32 0] [1 0 [HELLO 22 0 0]]
r 0.046947036 _5_ RTR  --- 3 OLSR 48 [0 ffffffff 16 800] [energy 999.997951 ei 0.002 es 0.000 et 0.000 er 0.000] ------- [22:255 -1:255 32 0] [1 0 [HELLO 22 0 0]]
r 0.046947086 _10_ RTR  --- 3 OLSR 48 [0 ffffffff 16 800] [energy 999.997951 ei 0.002 es 0.000 et 0.000 er 0.000] ------- [22:255 -1:255 32 0] [1 0 [HELLO 22 0 0]]
r 0.046947093 _2_ RTR  --- 3 OLSR 48 [0 ffffffff 16 800] [energy 999.997815 ei 0.002 es 0.000 et 0.000 er 0.001] ------- [22:255 -1:255 32 0] [1 0 [HELLO 22 0 0]]
r 0.046947195 _0_ RTR  --- 3 OLSR 48 [0 ffffffff 16 800] [energy 999.997877 ei 0.002 es 0.000 et 0.000 er 0.000] ------- [22:255 -1:255 32 0] [1 0 [HELLO 22 0 0]]
s 0.054599236 _12_ RTR  --- 4 OLSR 48 [0 0 0 0] [energy 999.997951 ei 0.002 es 0.000 et 0.000 er 0.000] ------- [12:255 -1:255 32 0] [1 0 [HELLO 12 0 0]]
s 0.055174236 _12_ MAC  --- 4 OLSR 106 [0 ffffffff c 800] [energy 999.997951 ei 0.002 es 0.000 et 0.000 er 0.000] ------- [12:255 -1:255 32 0] [1 0 [HELLO 12 0 0]]
N -t 0.055175 -n 30 -e 999.997423
N -t 0.055175 -n 29 -e 999.997496
N -t 0.055175 -n 9 -e 999.997496
N -t 0.055175 -n 0 -e 999.997423
N -t 0.055175 -n 27 -e 999.997496
N -t 0.055175 -n 26 -e 999.997496
N -t 0.055175 -n 5 -e 999.997496
N -t 0.055175 -n 18 -e 999.997496
N -t 0.055176 -n 22 -e 999.997423
N -t 0.055176 -n 17 -e 999.997496
N -t 0.055176 -n 19 -e 999.997496
N -t 0.055176 -n 15 -e 999.997361
N -t 0.055176 -n 21 -e 999.997496
N -t 0.055176 -n 23 -e 999.997361
N -t 0.055176 -n 10 -e 999.997496
N -t 0.055176 -n 3 -e 999.997361
N -t 0.055176 -n 4 -e 999.997361
s 0.056015658 _14_ RTR  --- 5 OLSR 48 [0 0 0 0] [energy 999.998285 ei 0.002 es 0.000 et 0.000 er 0.000] ------- [14:255 -1:255 32 0] [1 0 [HELLO 14 0 0]]
r 0.056022545 _30_ MAC  --- 4 OLSR 48 [0 ffffffff c 800] [energy 999.997423 ei 0.002 es 0.000 et 0.000 er 0.000] ------- [12:255 -1:255 32 0] [1 0 [HELLO 12 0 0]]
r 0.056022880 _29_ MAC  --- 4 OLSR 48 [0 ffffffff c 800] [energy 999.997496 ei 0.002 es 0.000 et 0.000 er 0.001] ------- [12:255 -1:255 32 0] [1 0 [HELLO 12 0 0]]
r 0.056023001 _9_ MAC  --- 4 OLSR 48 [0 ffffffff c 800] [energy 999.997496 ei 0.002 es 0.000 et 0.000 er 0.001] ------- [12:255 -1:255 32 0] [1 0 [HELLO 12 0 0]]
r 0.056023016 _0_ MAC  --- 4 OLSR 48 [0 ffffffff c 800] [energy 999.997423 ei 0.002 es 0.000 et 0.000 er 0.000] ------- [12:255 -1:255 32 0] [1 0 [HELLO 12 0 0]]
r 0.056047545 _30_ RTR  --- 4 OLSR 48 [0 ffffffff c 800] [energy 999.997423 ei 0.002 es 0.000 et 0.000 er 0.000] ------- [12:255 -1:255 32 0] [1 0 [HELLO 12 0 0]]
r 0.056047880 _29_ RTR  --- 4 OLSR 48 [0 ffffffff c 800] [energy 999.997496 ei 0.002 es 0.000 et 0.000 er 0.001] ------- [12:255 -1:255 32 0] [1 0 [HELLO 12 0 0]]
r 0.056048001 _9_ RTR  --- 4 OLSR 48 [0 ffffffff c 800] [energy 999.997496 ei 0.002 es 0.000 et 0.000 er 0.001] ------- [12:255 -1:255 32 0] [1 0 [HELLO 12 0 0]]
r 0.056048016 _0_ RTR  --- 4 OLSR 48 [0 ffffffff c 800] [energy 999.997423 ei 0.002 es 0.000 et 0.000 er 0.000] ------- [12:255 -1:255 32 0] [1 0 [HELLO 12 0 0]]
s 0.056250658 _14_ MAC  --- 5 OLSR 106 [0 ffffffff e 800] [energy 999.998285 ei 0.002 es 0.000 et 0.000 er 0.000] ------- [14:255 -1:255 32 0] [1 0 [HELLO 14 0 0]]
N -t 0.056251 -n 16 -e 999.997730
N -t 0.056251 -n 24 -e 999.997459
N -t 0.056251 -n 6 -e 999.997459
N -t 0.056252 -n 4 -e 999.997187
N -t 0.056252 -n 3 -e 999.997187
N -t 0.056252 -n 7 -e 999.997459
N -t 0.056252 -n 11 -e 999.997459
N -t 0.056252 -n 31 -e 999.997730
N -t 0.056252 -n 17 -e 999.997323
N -t 0.056252 -n 20 -e 999.997459
N -t 0.056252 -n 23 -e 999.997187
N -t 0.056252 -n 18 -e 999.997323
N -t 0.056252 -n 21 -e 999.997323
N -t 0.056252 -n 15 -e 999.997187
N -t 0.056252 -n 1 -e 999.997656
N -t 0.056252 -n 19 -e 999.997323
N -t 0.056252 -n 27 -e 999.997323
N -t 0.056252 -n 25 -e 999.997459
N -t 0.056252 -n 28 -e 999.997459
s 0.056904124 _5_ RTR  --- 6 OLSR 48 [0 0 0 0] [energy 999.997496 ei 0.002 es 0.000 et 0.000 er 0.001] ------- [5:255 -1:255 32 0] [1 0 [HELLO 5 0 0]]
s 0.056999124 _5_ MAC  --- 6 OLSR 106 [0 ffffffff 5 800] [energy 999.997496 ei 0.002 es 0.000 et 0.000 er 0.001] ------- [5:255 -1:255 32 0] [1 0 [HELLO 5 0 0]]
N -t 0.056999 -n 26 -e 999.997297
N -t 0.057000 -n 10 -e 999.997297
N -t 0.057000 -n 22 -e 999.997223
N -t 0.057000 -n 2 -e 999.997297
N -t 0.057000 -n 30 -e 999.997223
N -t 0.057000 -n 0 -e 999.997223
N -t 0.057000 -n 29 -e 999.997297
N -t 0.057000 -n 15 -e 999.997042
N -t 0.057000 -n 23 -e 999.997042
N -t 0.057000 -n 12 -e 999.997223
N -t 0.057000 -n 27 -e 999.997177
N -t 0.057001 -n 25 -e 999.997313
N -t 0.057001 -n 18 -e 999.997177
N -t 0.057001 -n 9 -e 999.997297
N -t 0.057001 -n 3 -e 999.997041
N -t 0.057001 -n 20 -e 999.997313
N -t 0.057001 -n 13 -e 999.997568
N -t 0.057001 -n 28 -e 999.997313
N -t 0.057001 -n 7 -e 999.997313
N -t 0.057001 -n 17 -e 999.997177
N -t 0.057001 -n 8 -e 999.997568
N -t 0.057001 -n 4 -e 999.997041
N -t 0.057001 -n 11 -e 999.997313
N -t 0.057001 -n 6 -e 999.997313
r 0.057098884 _16_ MAC  --- 5 OLSR 48 [0 ffffffff e 800] [energy 999.997730 ei 0.002 es 0.000 et 0.000 er 0.000] ------- [14:255 -1:255 32 0] [1 0 [HELLO 14 0 0]]
r 0.057099349 _24_ MAC  --- 5 OLSR 48 [0 ffffffff e 800] [energy 999.997459 ei 0.002 es 0.000 et 0.000 er 0.001] ------- [14:255 -1:255 32 0] [1 0 [HELLO 14 0 0]]
r 0.057099381 _6_ MAC  --- 5 OLSR 48 [0 ffffffff e 800] [energy 999.997313 ei 0.002 es 0.000 et 0.000 er 0.001] ------- [14:255 -1:255 32 0] [1 0 [HELLO 14 0 0]]
r 0.057123884 _16_ RTR  --- 5 OLSR 48 [0 ffffffff e 800] [energy 999.997730 ei 0.002 es 0.000 et 0.000 er 0.000] ------- [14:255 -1:255 32 0] [1 0 [HELLO 14 0 0]]
r 0.057124349 _24_ RTR  --- 5 OLSR 48 [0 ffffffff e 800] [energy 999.997459 ei 0.002 es 0.000 et 0.000 er 0.001] ------- [14:255 -1:255 32 0] [1 0 [HELLO 14 0 0]]
r 0.057124381 _6_ RTR  --- 5 OLSR 48 [0 ffffffff e 800] [energy 999.997313 ei 0.002 es 0.000 et 0.000 er 0.001] ------- [14:255 -1:255 32 0] [1 0 [HELLO 14 0 0]]
r 0.057847294 _26_ MAC  --- 6 OLSR 48 [0 ffffffff 5 800] [energy 999.997297 ei 0.002 es 0.000 et 0.000 er 0.001] ------- [5:255 -1:255 32 0] [1 0 [HELLO 5 0 0]]
r 0.057847640 _10_ MAC  --- 6 OLSR 48 [0 ffffffff 5 800] [energy 999.997297 ei 0.002 es 0.000 et 0.000 er 0.001] ------- [5:255 -1:255 32 0] [1 0 [HELLO 5 0 0]]
r 0.057847702 _22_ MAC  --- 6 OLSR 48 [0 ffffffff 5 800] [energy 999.997223 ei 0.002 es 0.000 et 0.000 er 0.001] ------- [5:255 -1:255 32 0] [1 0 [HELLO 5 0 0]]
r 0.057847901 _2_ MAC  --- 6 OLSR 48 [0 ffffffff 5 800] [energy 999.997297 ei 0.002 es 0.000 et 0.000 er 0.001] ------- [5:255 -1:255 32 0] [1 0 [HELLO 5 0 0]]
r 0.057872294 _26_ RTR  --- 6 OLSR 48 [0 ffffffff 5 800] [energy 999.997297 ei 0.002 es 0.000 et 0.000 er 0.001] ------- [5:255 -1:255 32 0] [1 0 [HELLO 5 0 0]]
r 0.057872640 _10_ RTR  --- 6 OLSR 48 [0 ffffffff 5 800] [energy 999.997297 ei 0.002 es 0.000 et 0.000 er 0.001] ------- [5:255 -1:255 32 0] [1 0 [HELLO 5 0 0]]
r 0.057872702 _22_ RTR  --- 6 OLSR 48 [0 ffffffff 5 800] [energy 999.997223 ei 0.002 es 0.000 et 0.000 er 0.001] ------- [5:255 -1:255 32 0] [1 0 [HELLO 5 0 0]]
r 0.057872901 _2_ RTR  --- 6 OLSR 48 [0 ffffffff 5 800] [energy 999.997297 ei 0.002 es 0.000 et 0.000 er 0.001] ------- [5:255 -1:255 32 0] [1 0 [HELLO 5 0 0]]
s 0.082072703 _4_ RTR  --- 7 OLSR 48 [0 0 0 0] [energy 999.997041 ei 0.002 es 0.000 et 0.000 er 0.001] ------- [4:255 -1:255 32 0] [1 0 [HELLO 4 0 0]]
s 0.082147703 _4_ MAC  --- 7 OLSR 106 [0 ffffffff 4 800] [energy 999.997041 ei 0.002 es 0.000 et 0.000 er 0.001] ------- [4:255 -1:255 32 0] [1 0 [HELLO 4 0 0]]
N -t 0.082148 -n 3 -e 999.996026
N -t 0.082148 -n 6 -e 999.996297
N -t 0.082148 -n 24 -e 999.996417
N -t 0.082148 -n 15 -e 999.996026
N -t 0.082148 -n 23 -e 999.996026
N -t 0.082148 -n 17 -e 999.996161
N -t 0.082148 -n 18 -e 999.996161
N -t 0.082148 -n 7 -e 999.996297
N -t 0.082148 -n 27 -e 999.996161
N -t 0.082149 -n 20 -e 999.996297
N -t 0.082149 -n 16 -e 999.996688
N -t 0.082149 -n 14 -e 999.996614
N -t 0.082149 -n 21 -e 999.996281
N -t 0.082149 -n 19 -e 999.996281
N -t 0.082149 -n 11 -e 999.996297
N -t 0.082149 -n 25 -e 999.996297
N -t 0.082149 -n 0 -e 999.996207
N -t 0.082149 -n 22 -e 999.996207
N -t 0.082149 -n 28 -e 999.996297
N -t 0.082149 -n 29 -e 999.996281
N -t 0.082149 -n 9 -e 999.996281
N -t 0.082149 -n 26 -e 999.996281
N -t 0.082149 -n 2 -e 999.996281
N -t 0.082149 -n 13 -e 999.996552
N -t 0.082149 -n 1 -e 999.996614
N -t 0.082149 -n 5 -e 999.996207
N -t 0.082149 -n 10 -e 999.996281
N -t 0.082149 -n 31 -e 999.996688
N -t 0.082149 -n 30 -e 999.996207
N -t 0.082149 -n 8 -e 999.996552
N -t 0.082150 -n 12 -e 999.996207
r 0.082995918 _3_ MAC  --- 7 OLSR 48 [0 ffffffff 4 800] [energy 999.996026 ei 0.003 es 0.000 et 0.000 er 0.001] ------- [4:255 -1:255 32 0] [1 0 [HELLO 4 0 0]]
r 0.082995921 _6_ MAC  --- 7 OLSR 48 [0 ffffffff 4 800] [energy 999.996297 ei 0.003 es 0.000 et 0.000 er 0.001] ------- [4:255 -1:255 32 0] [1 0 [HELLO 4 0 0]]
r 0.082995948 _24_ MAC  --- 7 OLSR 48 [0 ffffffff 4 800] [energy 999.996417 ei 0.003 es 0.000 et 0.000 er 0.001] ------- [4:255 -1:255 32 0] [1 0 [HELLO 4 0 0]]
r 0.082996259 _15_ MAC  --- 7 OLSR 48 [0 ffffffff 4 800] [energy 999.996026 ei 0.003 es 0.000 et 0.000 er 0.001] ------- [4:255 -1:255 32 0] [1 0 [HELLO 4 0 0]]
r 0.082996286 _23_ MAC  --- 7 OLSR 48 [0 ffffffff 4 800] [energy 999.996026 ei 0.003 es 0.000 et 0.000 er 0.001] ------- [4:255 -1:255 32 0] [1 0 [HELLO 4 0 0]]
r 0.082996342 _17_ MAC  --- 7 OLSR 48 [0 ffffffff 4 800] [energy 999.996161 ei 0.003 es 0.000 et 0.000 er 0.001] ------- [4:255 -1:255 32 0] [1 0 [HELLO 4 0 0]]
r 0.082996344 _18_ MAC  --- 7 OLSR 48 [0 ffffffff 4 800] [energy 999.996161 ei 0.003 es 0.000 et 0.000 er 0.001] ------- [4:255 -1:255 32 0] [1 0 [HELLO 4 0 0]]
r 0.082996349 _7_ MAC  --- 7 OLSR 48 [0 ffffffff 4 800] [energy 999.996297 ei 0.003 es 0.000 et 0.000 er 0.001] ------- [4:255 -1:255 32 0] [1 0 [HELLO 4 0 0]]
r 0.082996409 _27_ MAC  --- 7 OLSR 48 [0 ffffffff 4 800] [energy 999.996161 ei 0.003 es 0.000 et 0.000 er 0.001] ------- [4:255 -1:255 32 0] [1 0 [HELLO 4 0 0]]
r 0.083020918 _3_ RTR  --- 7 OLSR 48 [0 ffffffff 4 800] [energy 999.996026 ei 0.003 es 0.000 et 0.000 er 0.001] ------- [4:255 -1:255 32 0] [1 0 [HELLO 4 0 0]]
r 0.083020921 _6_ RTR  --- 7 OLSR 48 [0 ffffffff 4 800] [energy 999.996297 ei 0.003 es 0.000 et 0.000 er 0.001] ------- [4:255 -1:255 32 0] [1 0 [HELLO 4 0 0]]
r 0.083020948 _24_ RTR  --- 7 OLSR 48 [0 ffffffff 4 800] [energy 999.996417 ei 0.003 es 0.000 et 0.000 er 0.001] ------- [4:255 -1:255 32 0] [1 0 [HELLO 4 0 0]]
r 0.083021259 _15_ RTR  --- 7 OLSR 48 [0 ffffffff 4 800] [energy 999.996026 ei 0.003 es 0.000 et 0.000 er 0.001] ------- [4:255 -1:255 32 0] [1 0 [HELLO 4 0 0]]
r 0.083021286 _23_ RTR  --- 7 OLSR 48 [0 ffffffff 4 800] [energy 999.996026 ei 0.003 es 0.000 et 0.000 er 0.001] ------- [4:255 -1:255 32 0] [1 0 [HELLO 4 0 0]]
r 0.083021342 _17_ RTR  --- 7 OLSR 48 [0 ffffffff 4 800] [energy 999.996161 ei 0.003 es 0.000 et 0.000 er 0.001] ------- [4:255 -1:255 32 0] [1 0 [HELLO 4 0 0]]
r 0.083021344 _18_ RTR  --- 7 OLSR 48 [0 ffffffff 4 800] [energy 999.996161 ei 0.003 es 0.000 et 0.000 er 0.001] ------- [4:255 -1:255 32 0] [1 0 [HELLO 4 0 0]]
r 0.083021349 _7_ RTR  --- 7 OLSR 48 [0 ffffffff 4 800] [energy 999.996297 ei 0.003 es 0.000 et 0.000 er 0.001] ------- [4:255 -1:255 32 0] [1 0 [HELLO 4 0 0]]
r 0.083021409 _27_ RTR  --- 7 OLSR 48 [0 ffffffff 4 800] [energy 999.996161 ei 0.003 es 0.000 et 0.000 er 0.001] ------- [4:255 -1:255 32 0] [1 0 [HELLO 4 0 0]]
s 0.087402627 _6_ RTR  --- 8 OLSR 48 [0 0 0 0] [energy 999.996297 ei 0.003 es 0.000 et 0.000 er 0.001] ------- [6:255 -1:255 32 0] [1 0 [HELLO 6 0 0]]
s 0.087997627 _6_ MAC  --- 8 OLSR 106 [0 ffffffff 6 800] [energy 999.996297 ei 0.003 es 0.000 et 0.000 er 0.001] ------- [6:255 -1:255 32 0] [1 0 [HELLO 6 0 0]]
N -t 0.087998 -n 24 -e 999.996076
N -t 0.087998 -n 4 -e 999.995611
N -t 0.087998 -n 3 -e 999.995685
N -t 0.087998 -n 16 -e 999.996348
N -t 0.087998 -n 7 -e 999.995956
N -t 0.087998 -n 14 -e 999.996274
N -t 0.087998 -n 23 -e 999.995685
N -t 0.087998 -n 15 -e 999.995685
N -t 0.087998 -n 17 -e 999.995821
N -t 0.087998 -n 18 -e 999.995821
N -t 0.087999 -n 20 -e 999.995957
N -t 0.087999 -n 27 -e 999.995821
N -t 0.087999 -n 11 -e 999.995956
N -t 0.087999 -n 21 -e 999.995941
N -t 0.087999 -n 25 -e 999.995957
N -t 0.087999 -n 19 -e 999.995941
N -t 0.087999 -n 28 -e 999.995957
N -t 0.087999 -n 0 -e 999.995867
N -t 0.087999 -n 22 -e 999.995867
N -t 0.087999 -n 29 -e 999.995941
N -t 0.087999 -n 9 -e 999.995941
N -t 0.087999 -n 1 -e 999.996274
N -t 0.087999 -n 31 -e 999.996348
N -t 0.087999 -n 13 -e 999.996212
N -t 0.087999 -n 2 -e 999.995941
N -t 0.087999 -n 26 -e 999.995941
N -t 0.087999 -n 8 -e 999.996212
N -t 0.087999 -n 10 -e 999.995941
N -t 0.087999 -n 5 -e 999.995867
r 0.088845666 _24_ MAC  --- 8 OLSR 48 [0 ffffffff 6 800] [energy 999.996076 ei 0.003 es 0.000 et 0.000 er 0.001] ------- [6:255 -1:255 32 0] [1 0 [HELLO 6 0 0]]
r 0.088845845 _4_ MAC  --- 8 OLSR 48 [0 ffffffff 6 800] [energy 999.995611 ei 0.003 es 0.000 et 0.000 er 0.001] ------- [6:255 -1:255 32 0] [1 0 [HELLO 6 0 0]]
r 0.088846022 _3_ MAC  --- 8 OLSR 48 [0 ffffffff 6 800] [energy 999.995685 ei 0.003 es 0.000 et 0.000 er 0.001] ------- [6:255 -1:255 32 0] [1 0 [HELLO 6 0 0]]
r 0.088846268 _16_ MAC  --- 8 OLSR 48 [0 ffffffff 6 800] [energy 999.996348 ei 0.003 es 0.000 et 0.000 er 0.001] ------- [6:255 -1:255 32 0] [1 0 [HELLO 6 0 0]]
r 0.088846285 _7_ MAC  --- 8 OLSR 48 [0 ffffffff 6 800] [energy 999.995956 ei 0.003 es 0.000 et 0.000 er 0.001] ------- [6:255 -1:255 32 0] [1 0 [HELLO 6 0 0]]
r 0.088846350 _14_ MAC  --- 8 OLSR 48 [0 ffffffff 6 800] [energy 999.996274 ei 0.003 es 0.000 et 0.000 er 0.000] ------- [6:255 -1:255 32 0] [1 0 [HELLO 6 0 0]]
r 0.088846363 _23_ MAC  --- 8 OLSR 48 [0 ffffffff 6 800] [energy 999.995685 ei 0.003 es 0.000 et 0.000 er 0.001] ------- [6:255 -1:255 32 0] [1 0 [HELLO 6 0 0]]
r 0.088846382 _15_ MAC  --- 8 OLSR 48 [0 ffffffff 6 800] [energy 999.995685 ei 0.003 es 0.000 et 0.000 er 0.001] ------- [6:255 -1:255 32 0] [1 0 [HELLO 6 0 0]]
r 0.088846438 _17_ MAC  --- 8 OLSR 48 [0 ffffffff 6 800] [energy 999.995821 ei 0.003 es 0.000 et 0.000 er 0.001] ------- [6:255 -1:255 32 0] [1 0 [HELLO 6 0 0]]
r 0.088870666 _24_ RTR  --- 8 OLSR 48 [0 ffffffff 6 800] [energy 999.996076 ei 0.003 es 0.000 et 0.000 er 0.001] ------- [6:255 -1:255 32 0] [1 0 [HELLO 6 0 0]]
r 0.088870845 _4_ RTR  --- 8 OLSR 48 [0 ffffffff 6 800] [energy 999.995611 ei 0.003 es 0.000 et 0.000 er 0.001] ------- [6:255 -1:255 32 0] [1 0 [HELLO 6 0 0]]
r 0.088871022 _3_ RTR  --- 8 OLSR 48 [0 ffffffff 6 800] [energy 999.995685 ei 0.003 es 0.000 et 0.000 er 0.001] ------- [6:255 -1:255 32 0] [1 0 [HELLO 6 0 0]]
r 0.088871268 _16_ RTR  --- 8 OLSR 48 [0 ffffffff 6 800] [energy 999.996348 ei 0.003 es 0.000 et 0.000 er 0.001] ------- [6:255 -1:255 32 0] [1 0 [HELLO 6 0 0]]
r 0.088871285 _7_ RTR  --- 8 OLSR 48 [0 ffffffff 6 800] [energy 999.995956 ei 0.003 es 0.000 et 0.000 er 0.001] ------- [6:255 -1:255 32 0] [1 0 [HELLO 6 0 0]]
r 0.088871350 _14_ RTR  --- 8 OLSR 48 [0 ffffffff 6 800] [energy 999.996274 ei 0.003 es 0.000 et 0.000 er 0.000] ------- [6:255 -1:255 32 0] [1 0 [HELLO 6 0 0]]
r 0.088871363 _23_ RTR  --- 8 OLSR 48 [0 ffffffff 6 800] [energy 999.995685 ei 0.003 es 0.000 et 0.000 er 0.001] ------- [6:255 -1:255 32 0] [1 0 [HELLO 6 0 0]]
r 0.088871382 _15_ RTR  --- 8 OLSR 48 [0 ffffffff 6 800] [energy 999.995685 ei 0.003 es 0.000 et 0.000 er 0.001] ------- [6:255 -1:255 32 0] [1 0 [HELLO 6 0 0]]
r 0.088871438 _17_ RTR  --- 8 OLSR 48 [0 ffffffff 6 800] [energy 999.995821 ei 0.003 es 0.000 et 0.000 er 0.001] ------- [6:255 -1:255 32 0] [1 0 [HELLO 6 0 0]]
M 0.10000 6 (265.40, 454.51, 0.00), (344.32, 171.32), 4.50
s 0.120612814 _10_ RTR  --- 9 OLSR 48 [0 0 0 0] [energy 999.995941 ei 0.003 es 0.000 et 0.000 er 0.001] ------- [10:255 -1:255 32 0] [1 0 [HELLO 10 0 0]]
s 0.120707814 _10_ MAC  --- 9 OLSR 106 [0 ffffffff a 800] [energy 99