s 0.000169789 _0_ RTR  --- 0 AOLSR 48 [0 0 0 0] [energy 10000.000000 ei 0.000 es 0.000 et 0.000 er 0.000] ------- [0:255 -1:255 32 0] [1 0 [HELLO 0 0 0]]
s 0.000824789 _0_ MAC  --- 0 AOLSR 106 [0 ffffffff 0 800] [energy 10000.000000 ei 0.000 es 0.000 et 0.000 er 0.000] ------- [0:255 -1:255 32 0] [1 0 [HELLO 0 0 0]]
N -t 0.000825 -n 3 -e 9999.999852
N -t 0.000825 -n 27 -e 9999.999852
N -t 0.000825 -n 6 -e 9999.999852
N -t 0.000825 -n 1 -e 9999.999852
N -t 0.000826 -n 9 -e 9999.999852
N -t 0.000826 -n 7 -e 9999.999852
N -t 0.000826 -n 12 -e 9999.999852
N -t 0.000826 -n 4 -e 9999.999852
N -t 0.000826 -n 13 -e 9999.999852
N -t 0.000826 -n 10 -e 9999.999852
N -t 0.000826 -n 15 -e 9999.999852
N -t 0.000826 -n 2 -e 9999.999852
N -t 0.000826 -n 29 -e 9999.999852
N -t 0.000826 -n 8 -e 9999.999852
N -t 0.000826 -n 18 -e 9999.999852
N -t 0.000826 -n 16 -e 9999.999852
N -t 0.000826 -n 19 -e 9999.999852
N -t 0.000826 -n 14 -e 9999.999852
N -t 0.000826 -n 5 -e 9999.999852
N -t 0.000827 -n 21 -e 9999.999852
N -t 0.000827 -n 11 -e 9999.999852
r 0.001126539 _3_ MAC  --- 0 AOLSR 48 [0 ffffffff 0 800] [energy 9999.999852 ei 0.000 es 0.000 et 0.000 er 0.000] ------- [0:255 -1:255 32 0] [1 0 [HELLO 0 0 0]]
r 0.001126591 _27_ MAC  --- 0 AOLSR 48 [0 ffffffff 0 800] [energy 9999.999852 ei 0.000 es 0.000 et 0.000 er 0.000] ------- [0:255 -1:255 32 0] [1 0 [HELLO 0 0 0]]
r 0.001126622 _6_ MAC  --- 0 AOLSR 48 [0 ffffffff 0 800] [energy 9999.999852 ei 0.000 es 0.000 et 0.000 er 0.000] ------- [0:255 -1:255 32 0] [1 0 [HELLO 0 0 0]]
r 0.001126789 _1_ MAC  --- 0 AOLSR 48 [0 ffffffff 0 800] [energy 9999.999852 ei 0.000 es 0.000 et 0.000 er 0.000] ------- [0:255 -1:255 32 0] [1 0 [HELLO 0 0 0]]
r 0.001126943 _9_ MAC  --- 0 AOLSR 48 [0 ffffffff 0 800] [energy 9999.999852 ei 0.000 es 0.000 et 0.000 er 0.000] ------- [0:255 -1:255 32 0] [1 0 [HELLO 0 0 0]]
r 0.001126955 _7_ MAC  --- 0 AOLSR 48 [0 ffffffff 0 800] [energy 9999.999852 ei 0.000 es 0.000 et 0.000 er 0.000] ------- [0:255 -1:255 32 0] [1 0 [HELLO 0 0 0]]
r 0.001151539 _3_ RTR  --- 0 AOLSR 48 [0 ffffffff 0 800] [energy 9999.999852 ei 0.000 es 0.000 et 0.000 er 0.000] ------- [0:255 -1:255 32 0] [1 0 [HELLO 0 0 0]]
r 0.001151591 _27_ RTR  --- 0 AOLSR 48 [0 ffffffff 0 800] [energy 9999.999852 ei 0.000 es 0.000 et 0.000 er 0.000] ------- [0:255 -1:255 32 0] [1 0 [HELLO 0 0 0]]
r 0.001151622 _6_ RTR  --- 0 AOLSR 48 [0 ffffffff 0 800] [energy 9999.999852 ei 0.000 es 0.000 et 0.000 er 0.000] ------- [0:255 -1:255 32 0] [1 0 [HELLO 0 0 0]]
r 0.001151789 _1_ RTR  --- 0 AOLSR 48 [0 ffffffff 0 800] [energy 9999.999852 ei 0.000 es 0.000 et 0.000 er 0.000] ------- [0:255 -1:255 32 0] [1 0 [HELLO 0 0 0]]
r 0.001151943 _9_ RTR  --- 0 AOLSR 48 [0 ffffffff 0 800] [energy 9999.999852 ei 0.000 es 0.000 et 0.000 er 0.000] ------- [0:255 -1:255 32 0] [1 0 [HELLO 0 0 0]]
r 0.001151955 _7_ RTR  --- 0 AOLSR 48 [0 ffffffff 0 800] [energy 9999.999852 ei 0.000 es 0.000 et 0.000 er 0.000] ------- [0:255 -1:255 32 0] [1 0 [HELLO 0 0 0]]
s 0.044061336 _1_ RTR  --- 1 AOLSR 48 [0 0 0 0] [energy 9999.999852 ei 0.000 es 0.000 et 0.000 er 0.000] ------- [1:255 -1:255 32 0] [1 0 [HELLO 1 0 0]]
s 0.044316336 _1_ MAC  --- 1 AOLSR 106 [0 ffffffff 1 800] [energy 9999.999852 ei 0.000 es 0.000 et 0.000 er 0.000] ------- [1:255 -1:255 32 0] [1 0 [HELLO 1 0 0]]
N -t 0.044317 -n 3 -e 9999.998221
N -t 0.044317 -n 4 -e 9999.998221
N -t 0.044317 -n 7 -e 9999.998221
N -t 0.044317 -n 0 -e 9999.998142
N -t 0.044317 -n 2 -e 9999.998221
N -t 0.044317 -n 9 -e 9999.998221
N -t 0.044317 -n 10 -e 9999.998221
N -t 0.044317 -n 6 -e 9999.998221
N -t 0.044317 -n 8 -e 9999.998221
N -t 0.044317 -n 13 -e 9999.998221
N -t 0.044317 -n 5 -e 9999.998221
N -t 0.044317 -n 27 -e 9999.998221
N -t 0.044317 -n 29 -e 9999.998221
N -t 0.044318 -n 12 -e 9999.998221
N -t 0.044318 -n 14 -e 9999.998221
N -t 0.044318 -n 11 -e 9999.998221
N -t 0.044318 -n 15 -e 9999.998221
N -t 0.044318 -n 16 -e 9999.998221
N -t 0.044318 -n 28 -e 9999.998330
N -t 0.044318 -n 19 -e 9999.998221
N -t 0.044318 -n 17 -e 9999.998330
N -t 0.044318 -n 18 -e 9999.998221
N -t 0.044318 -n 20 -e 9999.998330
N -t 0.044318 -n 21 -e 9999.998221
N -t 0.044318 -n 22 -e 9999.998330
r 0.044618086 _3_ MAC  --- 1 AOLSR 48 [0 ffffffff 1 800] [energy 9999.998221 ei 0.002 es 0.000 et 0.000 er 0.000] ------- [1:255 -1:255 32 0] [1 0 [HELLO 1 0 0]]
r 0.044618086 _4_ MAC  --- 1 AOLSR 48 [0 ffffffff 1 800] [energy 9999.998221 ei 0.002 es 0.000 et 0.000 er 0.000] ------- [1:255 -1:255 32 0] [1 0 [HELLO 1 0 0]]
r 0.044618169 _7_ MAC  --- 1 AOLSR 48 [0 ffffffff 1 800] [energy 9999.998221 ei 0.002 es 0.000 et 0.000 er 0.000] ------- [1:255 -1:255 32 0] [1 0 [HELLO 1 0 0]]
r 0.044618336 _0_ MAC  --- 1 AOLSR 48 [0 ffffffff 1 800] [energy 9999.998142 ei 0.002 es 0.000 et 0.000 er 0.000] ------- [1:255 -1:255 32 0] [1 0 [HELLO 1 0 0]]
r 0.044618336 _2_ MAC  --- 1 AOLSR 48 [0 ffffffff 1 800] [energy 9999.998221 ei 0.002 es 0.000 et 0.000 er 0.000] ------- [1:255 -1:255 32 0] [1 0 [HELLO 1 0 0]]
r 0.044618490 _9_ MAC  --- 1 AOLSR 48 [0 ffffffff 1 800] [energy 9999.998221 ei 0.002 es 0.000 et 0.000 er 0.000] ------- [1:255 -1:255 32 0] [1 0 [HELLO 1 0 0]]
r 0.044618490 _10_ MAC  --- 1 AOLSR 48 [0 ffffffff 1 800] [energy 9999.998221 ei 0.002 es 0.000 et 0.000 er 0.000] ------- [1:255 -1:255 32 0] [1 0 [HELLO 1 0 0]]
r 0.044618502 _6_ MAC  --- 1 AOLSR 48 [0 ffffffff 1 800] [energy 9999.998221 ei 0.002 es 0.000 et 0.000 er 0.000] ------- [1:255 -1:255 32 0] [1 0 [HELLO 1 0 0]]
r 0.044618502 _8_ MAC  --- 1 AOLSR 48 [0 ffffffff 1 800] [energy 9999.998221 ei 0.002 es 0.000 et 0.000 er 0.000] ------- [1:255 -1:255 32 0] [1 0 [HELLO 1 0 0]]
r 0.044643086 _3_ RTR  --- 1 AOLSR 48 [0 ffffffff 1 800] [energy 9999.998221 ei 0.002 es 0.000 et 0.000 er 0.000] ------- [1:255 -1:255 32 0] [1 0 [HELLO 1 0 0]]
r 0.044643086 _4_ RTR  --- 1 AOLSR 48 [0 ffffffff 1 800] [energy 9999.998221 ei 0.002 es 0.000 et 0.000 er 0.000] ------- [1:255 -1:255 32 0] [1 0 [HELLO 1 0 0]]
r 0.044643169 _7_ RTR  --- 1 AOLSR 48 [0 ffffffff 1 800] [energy 9999.998221 ei 0.002 es 0.000 et 0.000 er 0.000] ------- [1:255 -1:255 32 0] [1 0 [HELLO 1 0 0]]
r 0.044643336 _0_ RTR  --- 1 AOLSR 48 [0 ffffffff 1 800] [energy 9999.998142 ei 0.002 es 0.000 et 0.000 er 0.000] ------- [1:255 -1:255 32 0] [1 0 [HELLO 1 0 0]]
r 0.044643336 _2_ RTR  --- 1 AOLSR 48 [0 ffffffff 1 800] [energy 9999.998221 ei 0.002 es 0.000 et 0.000 er 0.000] ------- [1:255 -1:255 32 0] [1 0 [HELLO 1 0 0]]
r 0.044643490 _9_ RTR  --- 1 AOLSR 48 [0 ffffffff 1 800] [energy 9999.998221 ei 0.002 es 0.000 et 0.000 er 0.000] ------- [1:255 -1:255 32 0] [1 0 [HELLO 1 0 0]]
r 0.044643490 _10_ RTR  --- 1 AOLSR 48 [0 ffffffff 1 800] [energy 9999.998221 ei 0.002 es 0.000 et 0.000 er 0.000] ------- [1:255 -1:255 32 0] [1 0 [HELLO 1 0 0]]
r 0.044643502 _6_ RTR  --- 1 AOLSR 48 [0 ffffffff 1 800] [energy 9999.998221 ei 0.002 es 0.000 et 0.000 er 0.000] ------- [1:255 -1:255 32 0] [1 0 [HELLO 1 0 0]]
r 0.044643502 _8_ RTR  --- 1 AOLSR 48 [0 ffffffff 1 800] [energy 9999.998221 ei 0.002 es 0.000 et 0.000 er 0.000] ------- [1:255 -1:255 32 0] [1 0 [HELLO 1 0 0]]
s 0.045678458 _22_ RTR  --- 2 AOLSR 48 [0 0 0 0] [energy 9999.998330 ei 0.002 es 0.000 et 0.000 er 0.000] ------- [22:255 -1:255 32 0] [1 0 [HELLO 22 0 0]]
s 0.046193458 _22_ MAC  --- 2 AOLSR 106 [0 ffffffff 16 800] [energy 9999.998330 ei 0.002 es 0.000 et 0.000 er 0.000] ------- [22:255 -1:255 32 0] [1 0 [HELLO 22 0 0]]
N -t 0.046194 -n 20 -e 9999.998156
N -t 0.046194 -n 19 -e 9999.998047
N -t 0.046194 -n 25 -e 9999.998264
N -t 0.046194 -n 26 -e 9999.998264
N -t 0.046194 -n 16 -e 9999.998047
N -t 0.046194 -n 21 -e 9999.998047
N -t 0.046194 -n 23 -e 9999.998264
N -t 0.046194 -n 29 -e 9999.998047
N -t 0.046194 -n 14 -e 9999.998047
N -t 0.046194 -n 13 -e 9999.998047
N -t 0.046194 -n 17 -e 9999.998156
N -t 0.046194 -n 15 -e 9999.998047
N -t 0.046194 -n 10 -e 9999.998047
N -t 0.046194 -n 18 -e 9999.998047
N -t 0.046194 -n 24 -e 9999.998264
N -t 0.046195 -n 11 -e 9999.998047
N -t 0.046195 -n 9 -e 9999.998047
N -t 0.046195 -n 12 -e 9999.998047
N -t 0.046195 -n 8 -e 9999.998047
N -t 0.046195 -n 7 -e 9999.998047
N -t 0.046195 -n 4 -e 9999.998047
N -t 0.046195 -n 6 -e 9999.998047
N -t 0.046195 -n 5 -e 9999.998047
N -t 0.046195 -n 3 -e 9999.998047
N -t 0.046195 -n 2 -e 9999.998047
N -t 0.046195 -n 1 -e 9999.997967
r 0.046495208 _20_ MAC  --- 2 AOLSR 48 [0 ffffffff 16 800] [energy 9999.998156 ei 0.002 es 0.000 et 0.000 er 0.000] ------- [22:255 -1:255 32 0] [1 0 [HELLO 22 0 0]]
r 0.046495208 _19_ MAC  --- 2 AOLSR 48 [0 ffffffff 16 800] [energy 9999.998047 ei 0.002 es 0.000 et 0.000 er 0.000] ------- [22:255 -1:255 32 0] [1 0 [HELLO 22 0 0]]
r 0.046495208 _25_ MAC  --- 2 AOLSR 48 [0 ffffffff 16 800] [energy 9999.998264 ei 0.002 es 0.000 et 0.000 er 0.000] ------- [22:255 -1:255 32 0] [1 0 [HELLO 22 0 0]]
r 0.046495208 _26_ MAC  --- 2 AOLSR 48 [0 ffffffff 16 800] [energy 9999.998264 ei 0.002 es 0.000 et 0.000 er 0.000] ------- [22:255 -1:255 32 0] [1 0 [HELLO 22 0 0]]
r 0.046495291 _16_ MAC  --- 2 AOLSR 48 [0 ffffffff 16 800] [energy 9999.998047 ei 0.002 es 0.000 et 0.000 er 0.000] ------- [22:255 -1:255 32 0] [1 0 [HELLO 22 0 0]]
r 0.046495458 _21_ MAC  --- 2 AOLSR 48 [0 ffffffff 16 800] [energy 9999.998047 ei 0.002 es 0.000 et 0.000 er 0.000] ------- [22:255 -1:255 32 0] [1 0 [HELLO 22 0 0]]
r 0.046495458 _23_ MAC  --- 2 AOLSR 48 [0 ffffffff 16 800] [energy 9999.998264 ei 0.002 es 0.000 et 0.000 er 0.000] ------- [22:255 -1:255 32 0] [1 0 [HELLO 22 0 0]]
r 0.046495541 _29_ MAC  --- 2 AOLSR 48 [0 ffffffff 16 800] [energy 9999.998047 ei 0.002 es 0.000 et 0.000 er 0.000] ------- [22:255 -1:255 32 0] [1 0 [HELLO 22 0 0]]
r 0.046495612 _14_ MAC  --- 2 AOLSR 48 [0 ffffffff 16 800] [energy 9999.998047 ei 0.002 es 0.000 et 0.000 er 0.000] ------- [22:255 -1:255 32 0] [1 0 [HELLO 22 0 0]]
r 0.046495612 _13_ MAC  --- 2 AOLSR 48 [0 ffffffff 16 800] [energy 9999.998047 ei 0.002 es 0.000 et 0.000 er 0.000] ------- [22:255 -1:255 32 0] [1 0 [HELLO 22 0 0]]
r 0.046495625 _17_ MAC  --- 2 AOLSR 48 [0 ffffffff 16 800] [energy 9999.998156 ei 0.002 es 0.000 et 0.000 er 0.000] ------- [22:255 -1:255 32 0] [1 0 [HELLO 22 0 0]]
r 0.046495625 _15_ MAC  --- 2 AOLSR 48 [0 ffffffff 16 800] [energy 9999.998047 ei 0.002 es 0.000 et 0.000 er 0.000] ------- [22:255 -1:255 32 0] [1 0 [HELLO 22 0 0]]
r 0.046520208 _20_ RTR  --- 2 AOLSR 48 [0 ffffffff 16 800] [energy 9999.998156 ei 0.002 es 0.000 et 0.000 er 0.000] ------- [22:255 -1:255 32 0] [1 0 [HELLO 22 0 0]]
r 0.046520208 _19_ RTR  --- 2 AOLSR 48 [0 ffffffff 16 800] [energy 9999.998047 ei 0.002 es 0.000 et 0.000 er 0.000] ------- [22:255 -1:255 32 0] [1 0 [HELLO 22 0 0]]
r 0.046520208 _25_ RTR  --- 2 AOLSR 48 [0 ffffffff 16 800] [energy 9999.998264 ei 0.002 es 0.000 et 0.000 er 0.000] ------- [22:255 -1:255 32 0] [1 0 [HELLO 22 0 0]]
r 0.046520208 _26_ RTR  --- 2 AOLSR 48 [0 ffffffff 16 800] [energy 9999.998264 ei 0.002 es 0.000 et 0.000 er 0.000] ------- [22:255 -1:255 32 0] [1 0 [HELLO 22 0 0]]
r 0.046520291 _16_ RTR  --- 2 AOLSR 48 [0 ffffffff 16 800] [energy 9999.998047 ei 0.002 es 0.000 et 0.000 er 0.000] ------- [22:255 -1:255 32 0] [1 0 [HELLO 22 0 0]]
r 0.046520458 _21_ RTR  --- 2 AOLSR 48 [0 ffffffff 16 800] [energy 9999.998047 ei 0.002 es 0.000 et 0.000 er 0.000] ------- [22:255 -1:255 32 0] [1 0 [HELLO 22 0 0]]
r 0.046520458 _23_ RTR  --- 2 AOLSR 48 [0 ffffffff 16 800] [energy 9999.998264 ei 0.002 es 0.000 et 0.000 er 0.000] ------- [22:255 -1:255 32 0] [1 0 [HELLO 22 0 0]]
r 0.046520541 _29_ RTR  --- 2 AOLSR 48 [0 ffffffff 16 800] [energy 9999.998047 ei 0.002 es 0.000 et 0.000 er 0.000] ------- [22:255 -1:255 32 0] [1 0 [HELLO 22 0 0]]
r 0.046520612 _14_ RTR  --- 2 AOLSR 48 [0 ffffffff 16 800] [energy 9999.998047 ei 0.002 es 0.000 et 0.000 er 0.000] ------- [22:255 -1:255 32 0] [1 0 [HELLO 22 0 0]]
r 0.046520612 _13_ RTR  --- 2 AOLSR 48 [0 ffffffff 16 800] [energy 9999.998047 ei 0.002 es 0.000 et 0.000 er 0.000] ------- [22:255 -1:255 32 0] [1 0 [HELLO 22 0 0]]
r 0.046520625 _17_ RTR  --- 2 AOLSR 48 [0 ffffffff 16 800] [energy 9999.998156 ei 0.002 es 0.000 et 0.000 er 0.000] ------- [22:255 -1:255 32 0] [1 0 [HELLO 22 0 0]]
r 0.046520625 _15_ RTR  --- 2 AOLSR 48 [0 ffffffff 16 800] [energy 9999.998047 ei 0.002 es 0.000 et 0.000 er 0.000] ------- [22:255 -1:255 32 0] [1 0 [HELLO 22 0 0]]
s 0.054599236 _12_ RTR  --- 3 AOLSR 48 [0 0 0 0] [energy 9999.998047 ei 0.002 es 0.000 et 0.000 er 0.000] ------- [12:255 -1:255 32 0] [1 0 [HELLO 12 0 0]]
s 0.054794236 _12_ MAC  --- 3 AOLSR 106 [0 ffffffff c 800] [energy 9999.998047 ei 0.002 es 0.000 et 0.000 er 0.000] ------- [12:255 -1:255 32 0] [1 0 [HELLO 12 0 0]]
N -t 0.054795 -n 9 -e 9999.997638
N -t 0.054795 -n 15 -e 9999.997638
N -t 0.054795 -n 6 -e 9999.997638
N -t 0.054795 -n 18 -e 9999.997638
N -t 0.054795 -n 13 -e 9999.997638
N -t 0.054795 -n 27 -e 9999.997746
N -t 0.054795 -n 3 -e 9999.997638
N -t 0.054795 -n 21 -e 9999.997638
N -t 0.054795 -n 7 -e 9999.997638
N -t 0.054795 -n 19 -e 9999.997638
N -t 0.054795 -n 0 -e 9999.997666
N -t 0.054795 -n 29 -e 9999.997638
N -t 0.054795 -n 24 -e 9999.997855
N -t 0.054795 -n 10 -e 9999.997638
N -t 0.054795 -n 16 -e 9999.997638
N -t 0.054795 -n 1 -e 9999.997558
N -t 0.054795 -n 25 -e 9999.997855
N -t 0.054795 -n 4 -e 9999.997638
N -t 0.054795 -n 22 -e 9999.997666
N -t 0.054796 -n 14 -e 9999.997638
N -t 0.054796 -n 8 -e 9999.997638
N -t 0.054796 -n 20 -e 9999.997746
N -t 0.054796 -n 2 -e 9999.997638
N -t 0.054796 -n 26 -e 9999.997855
N -t 0.054796 -n 11 -e 9999.997638
N -t 0.054796 -n 17 -e 9999.997746
N -t 0.054796 -n 5 -e 9999.997638
N -t 0.054796 -n 23 -e 9999.997855
r 0.055095986 _9_ MAC  --- 3 AOLSR 48 [0 ffffffff c 800] [energy 9999.997638 ei 0.002 es 0.000 et 0.000 er 0.000] ------- [12:255 -1:255 32 0] [1 0 [HELLO 12 0 0]]
r 0.055095986 _15_ MAC  --- 3 AOLSR 48 [0 ffffffff c 800] [energy 9999.997638 ei 0.002 es 0.000 et 0.000 er 0.000] ------- [12:255 -1:255 32 0] [1 0 [HELLO 12 0 0]]
r 0.055096069 _6_ MAC  --- 3 AOLSR 48 [0 ffffffff c 800] [energy 9999.997638 ei 0.002 es 0.000 et 0.000 er 0.000] ------- [12:255 -1:255 32 0] [1 0 [HELLO 12 0 0]]
r 0.055096069 _18_ MAC  --- 3 AOLSR 48 [0 ffffffff c 800] [energy 9999.997638 ei 0.002 es 0.000 et 0.000 er 0.000] ------- [12:255 -1:255 32 0] [1 0 [HELLO 12 0 0]]
r 0.055096236 _13_ MAC  --- 3 AOLSR 48 [0 ffffffff c 800] [energy 9999.997638 ei 0.002 es 0.000 et 0.000 er 0.000] ------- [12:255 -1:255 32 0] [1 0 [HELLO 12 0 0]]
r 0.055096313 _27_ MAC  --- 3 AOLSR 48 [0 ffffffff c 800] [energy 9999.997746 ei 0.002 es 0.000 et 0.000 er 0.000] ------- [12:255 -1:255 32 0] [1 0 [HELLO 12 0 0]]
r 0.055096390 _3_ MAC  --- 3 AOLSR 48 [0 ffffffff c 800] [energy 9999.997638 ei 0.002 es 0.000 et 0.000 er 0.000] ------- [12:255 -1:255 32 0] [1 0 [HELLO 12 0 0]]
r 0.055096390 _21_ MAC  --- 3 AOLSR 48 [0 ffffffff c 800] [energy 9999.997638 ei 0.002 es 0.000 et 0.000 er 0.000] ------- [12:255 -1:255 32 0] [1 0 [HELLO 12 0 0]]
r 0.055096403 _7_ MAC  --- 3 AOLSR 48 [0 ffffffff c 800] [energy 9999.997638 ei 0.002 es 0.000 et 0.000 er 0.000] ------- [12:255 -1:255 32 0] [1 0 [HELLO 12 0 0]]
r 0.055096403 _19_ MAC  --- 3 AOLSR 48 [0 ffffffff c 800] [energy 9999.997638 ei 0.002 es 0.000 et 0.000 er 0.000] ------- [12:255 -1:255 32 0] [1 0 [HELLO 12 0 0]]
r 0.055120986 _9_ RTR  --- 3 AOLSR 48 [0 ffffffff c 800] [energy 9999.997638 ei 0.002 es 0.000 et 0.000 er 0.000] ------- [12:255 -1:255 32 0] [1 0 [HELLO 12 0 0]]
r 0.055120986 _15_ RTR  --- 3 AOLSR 48 [0 ffffffff c 800] [energy 9999.997638 ei 0.002 es 0.000 et 0.000 er 0.000] ------- [12:255 -1:255 32 0] [1 0 [HELLO 12 0 0]]
r 0.055121069 _6_ RTR  --- 3 AOLSR 48 [0 ffffffff c 800] [energy 9999.997638 ei 0.002 es 0.000 et 0.000 er 0.000] ------- [12:255 -1:255 32 0] [1 0 [HELLO 12 0 0]]
r 0.055121069 _18_ RTR  --- 3 AOLSR 48 [0 ffffffff c 800] [energy 9999.997638 ei 0.002 es 0.000 et 0.000 er 0.000] ------- [12:255 -1:255 32 0] [1 0 [HELLO 12 0 0]]
r 0.055121236 _13_ RTR  --- 3 AOLSR 48 [0 ffffffff c 800] [energy 9999.997638 ei 0.002 es 0.000 et 0.000 er 0.000] ------- [12:255 -1:255 32 0] [1 0 [HELLO 12 0 0]]
r 0.055121313 _27_ RTR  --- 3 AOLSR 48 [0 ffffffff c 800] [energy 9999.997746 ei 0.002 es 0.000 et 0.000 er 0.000] ------- [12:255 -1:255 32 0] [1 0 [HELLO 12 0 0]]
r 0.055121390 _3_ RTR  --- 3 AOLSR 48 [0 ffffffff c 800] [energy 9999.997638 ei 0.002 es 0.000 et 0.000 er 0.000] ------- [12:255 -1:255 32 0] [1 0 [HELLO 12 0 0]]
r 0.055121390 _21_ RTR  --- 3 AOLSR 48 [0 ffffffff c 800] [energy 9999.997638 ei 0.002 es 0.000 et 0.000 er 0.000] ------- [12:255 -1:255 32 0] [1 0 [HELLO 12 0 0]]
r 0.055121403 _7_ RTR  --- 3 AOLSR 48 [0 ffffffff c 800] [energy 9999.997638 ei 0.002 es 0.000 et 0.000 er 0.000] ------- [12:255 -1:255 32 0] [1 0 [HELLO 12 0 0]]
r 0.055121403 _19_ RTR  --- 3 AOLSR 48 [0 ffffffff c 800] [energy 9999.997638 ei 0.002 es 0.000 et 0.000 er 0.000] ------- [12:255 -1:255 32 0] [1 0 [HELLO 12 0 0]]
s 0.056015658 _14_ RTR  --- 4 AOLSR 48 [0 0 0 0] [energy 9999.997638 ei 0.002 es 0.000 et 0.000 er 0.000] ------- [14:255 -1:255 32 0] [1 0 [HELLO 14 0 0]]
s 0.056310658 _14_ MAC  --- 4 AOLSR 106 [0 ffffffff e 800] [energy 9999.997638 ei 0.002 es 0.000 et 0.000 er 0.000] ------- [14:255 -1:255 32 0] [1 0 [HELLO 14 0 0]]
N -t 0.056311 -n 29 -e 9999.997476
N -t 0.056311 -n 11 -e 9999.997476
N -t 0.056311 -n 10 -e 9999.997476
N -t 0.056311 -n 16 -e 9999.997476
N -t 0.056311 -n 17 -e 9999.997585
N -t 0.056311 -n 8 -e 9999.997476
N -t 0.056311 -n 20 -e 9999.997585
N -t 0.056311 -n 13 -e 9999.997476
N -t 0.056311 -n 5 -e 9999.997476
N -t 0.056311 -n 4 -e 9999.997476
N -t 0.056311 -n 22 -e 9999.997505
N -t 0.056311 -n 23 -e 9999.997693
N -t 0.056311 -n 7 -e 9999.997476
N -t 0.056311 -n 19 -e 9999.997476
N -t 0.056312 -n 2 -e 9999.997476
N -t 0.056312 -n 26 -e 9999.997693
N -t 0.056312 -n 9 -e 9999.997476
N -t 0.056312 -n 15 -e 9999.997476
N -t 0.056312 -n 1 -e 9999.997396
N -t 0.056312 -n 25 -e 9999.997693
N -t 0.056312 -n 3 -e 9999.997476
N -t 0.056312 -n 21 -e 9999.997476
N -t 0.056312 -n 12 -e 9999.997396
N -t 0.056312 -n 6 -e 9999.997476
N -t 0.056312 -n 18 -e 9999.997476
N -t 0.056312 -n 28 -e 9999.997802
N -t 0.056312 -n 0 -e 9999.997505
N -t 0.056312 -n 24 -e 9999.997693
N -t 0.056312 -n 27 -e 9999.997585
r 0.056612325 _29_ MAC  --- 4 AOLSR 48 [0 ffffffff e 800] [energy 9999.997476 ei 0.002 es 0.000 et 0.000 er 0.001] ------- [14:255 -1:255 32 0] [1 0 [HELLO 14 0 0]]
r 0.056612408 _11_ MAC  --- 4 AOLSR 48 [0 ffffffff e 800] [energy 9999.997476 ei 0.002 es 0.000 et 0.000 er 0.001] ------- [14:255 -1:255 32 0] [1 0 [HELLO 14 0 0]]
r 0.056612408 _10_ MAC  --- 4 AOLSR 48 [0 ffffffff e 800] [energy 9999.997476 ei 0.002 es 0.000 et 0.000 er 0.001] ------- [14:255 -1:255 32 0] [1 0 [HELLO 14 0 0]]
r 0.056612408 _16_ MAC  --- 4 AOLSR 48 [0 ffffffff e 800] [energy 9999.997476 ei 0.002 es 0.000 et 0.000 er 0.001] ------- [14:255 -1:255 32 0] [1 0 [HELLO 14 0 0]]
r 0.056612408 _17_ MAC  --- 4 AOLSR 48 [0 ffffffff e 800] [energy 9999.997585 ei 0.002 es 0.000 et 0.000 er 0.000] ------- [14:255 -1:255 32 0] [1 0 [HELLO 14 0 0]]
r 0.056612491 _8_ MAC  --- 4 AOLSR 48 [0 ffffffff e 800] [energy 9999.997476 ei 0.002 es 0.000 et 0.000 er 0.001] ------- [14:255 -1:255 32 0] [1 0 [HELLO 14 0 0]]
r 0.056612491 _20_ MAC  --- 4 AOLSR 48 [0 ffffffff e 800] [energy 9999.997585 ei 0.002 es 0.000 et 0.000 er 0.000] ------- [14:255 -1:255 32 0] [1 0 [HELLO 14 0 0]]
r 0.056612658 _13_ MAC  --- 4 AOLSR 48 [0 ffffffff e 800] [energy 9999.997476 ei 0.002 es 0.000 et 0.000 er 0.001] ------- [14:255 -1:255 32 0] [1 0 [HELLO 14 0 0]]
r 0.056612812 _5_ MAC  --- 4 AOLSR 48 [0 ffffffff e 800] [energy 9999.997476 ei 0.002 es 0.000 et 0.000 er 0.001] ------- [14:255 -1:255 32 0] [1 0 [HELLO 14 0 0]]
r 0.056612812 _4_ MAC  --- 4 AOLSR 48 [0 ffffffff e 800] [energy 9999.997476 ei 0.002 es 0.000 et 0.000 er 0.001] ------- [14:255 -1:255 32 0] [1 0 [HELLO 14 0 0]]
r 0.056612812 _22_ MAC  --- 4 AOLSR 48 [0 ffffffff e 800] [energy 9999.997505 ei 0.002 es 0.000 et 0.000 er 0.000] ------- [14:255 -1:255 32 0] [1 0 [HELLO 14 0 0]]
r 0.056612812 _23_ MAC  --- 4 AOLSR 48 [0 ffffffff e 800] [energy 9999.997693 ei 0.002 es 0.000 et 0.000 er 0.000] ------- [14:255 -1:255 32 0] [1 0 [HELLO 14 0 0]]
r 0.056612825 _7_ MAC  --- 4 AOLSR 48 [0 ffffffff e 800] [energy 9999.997476 ei 0.002 es 0.000 et 0.000 er 0.001] ------- [14:255 -1:255 32 0] [1 0 [HELLO 14 0 0]]
r 0.056612825 _19_ MAC  --- 4 AOLSR 48 [0 ffffffff e 800] [energy 9999.997476 ei 0.002 es 0.000 et 0.000 er 0.001] ------- [14:255 -1:255 32 0] [1 0 [HELLO 14 0 0]]
r 0.056637325 _29_ RTR  --- 4 AOLSR 48 [0 ffffffff e 800] [energy 9999.997476 ei 0.002 es 0.000 et 0.000 er 0.001] ------- [14:255 -1:255 32 0] [1 0 [HELLO 14 0 0]]
r 0.056637408 _11_ RTR  --- 4 AOLSR 48 [0 ffffffff e 800] [energy 9999.997476 ei 0.002 es 0.000 et 0.000 er 0.001] ------- [14:255 -1:255 32 0] [1 0 [HELLO 14 0 0]]
r 0.056637408 _10_ RTR  --- 4 AOLSR 48 [0 ffffffff e 800] [energy 9999.997476 ei 0.002 es 0.000 et 0.000 er 0.001] ------- [14:255 -1:255 32 0] [1 0 [HELLO 14 0 0]]
r 0.056637408 _16_ RTR  --- 4 AOLSR 48 [0 ffffffff e 800] [energy 9999.997476 ei 0.002 es 0.000 et 0.000 er 0.001] ------- [14:255 -1:255 32 0] [1 0 [HELLO 14 0 0]]
r 0.056637408 _17_ RTR  --- 4 AOLSR 48 [0 ffffffff e 800] [energy 9999.997585 ei 0.002 es 0.000 et 0.000 er 0.000] ------- [14:255 -1:255 32 0] [1 0 [HELLO 14 0 0]]
r 0.056637491 _8_ RTR  --- 4 AOLSR 48 [0 ffffffff e 800] [energy 9999.997476 ei 0.002 es 0.000 et 0.000 er 0.001] ------- [14:255 -1:255 32 0] [1 0 [HELLO 14 0 0]]
r 0.056637491 _20_ RTR  --- 4 AOLSR 48 [0 ffffffff e 800] [energy 9999.997585 ei 0.002 es 0.000 et 0.000 er 0.000] ------- [14:255 -1:255 32 0] [1 0 [HELLO 14 0 0]]
r 0.056637658 _13_ RTR  --- 4 AOLSR 48 [0 ffffffff e 800] [energy 9999.997476 ei 0.002 es 0.000 et 0.000 er 0.001] ------- [14:255 -1:255 32 0] [1 0 [HELLO 14 0 0]]
r 0.056637812 _5_ RTR  --- 4 AOLSR 48 [0 ffffffff e 800] [energy 9999.997476 ei 0.002 es 0.000 et 0.000 er 0.001] ------- [14:255 -1:255 32 0] [1 0 [HELLO 14 0 0]]
r 0.056637812 _4_ RTR  --- 4 AOLSR 48 [0 ffffffff e 800] [energy 9999.997476 ei 0.002 es 0.000 et 0.000 er 0.001] ------- [14:255 -1:255 32 0] [1 0 [HELLO 14 0 0]]
r 0.056637812 _22_ RTR  --- 4 AOLSR 48 [0 ffffffff e 800] [energy 9999.997505 ei 0.002 es 0.000 et 0.000 er 0.000] ------- [14:255 -1:255 32 0] [1 0 [HELLO 14 0 0]]
r 0.056637812 _23_ RTR  --- 4 AOLSR 48 [0 ffffffff e 800] [energy 9999.997693 ei 0.002 es 0.000 et 0.000 er 0.000] ------- [14:255 -1:255 32 0] [1 0 [HELLO 14 0 0]]
r 0.056637825 _7_ RTR  --- 4 AOLSR 48 [0 ffffffff e 800] [energy 9999.997476 ei 0.002 es 0.000 et 0.000 er 0.001] ------- [14:255 -1:255 32 0] [1 0 [HELLO 14 0 0]]
r 0.056637825 _19_ RTR  --- 4 AOLSR 48 [0 ffffffff e 800] [energy 9999.997476 ei 0.002 es 0.000 et 0.000 er 0.001] ------- [14:255 -1:255 32 0] [1 0 [HELLO 14 0 0]]
s 0.056904124 _5_ RTR  --- 5 AOLSR 48 [0 0 0 0] [energy 9999.997476 ei 0.002 es 0.000 et 0.000 er 0.001] ------- [5:255 -1:255 32 0] [1 0 [HELLO 5 0 0]]
s 0.057119124 _5_ MAC  --- 5 AOLSR 106 [0 ffffffff 5 800] [energy 9999.997476 ei 0.002 es 0.000 et 0.000 er 0.001] ------- [5:255 -1:255 32 0] [1 0 [HELLO 5 0 0]]
N -t 0.057120 -n 2 -e 9999.997339
N -t 0.057120 -n 8 -e 9999.997339
N -t 0.057120 -n 11 -e 9999.997339
N -t 0.057120 -n 4 -e 9999.997339
N -t 0.057120 -n 28 -e 9999.997665
N -t 0.057120 -n 14 -e 9999.997260
N -t 0.057120 -n 10 -e 9999.997339
N -t 0.057120 -n 17 -e 9999.997448
N -t 0.057120 -n 29 -e 9999.997339
N -t 0.057120 -n 1 -e 9999.997260
N -t 0.057120 -n 7 -e 9999.997339
N -t 0.057120 -n 16 -e 9999.997339
N -t 0.057120 -n 13 -e 9999.997339
N -t 0.057120 -n 20 -e 9999.997448
N -t 0.057120 -n 3 -e 9999.997339
N -t 0.057121 -n 9 -e 9999.997339
N -t 0.057121 -n 23 -e 9999.997556
N -t 0.057121 -n 19 -e 9999.997339
N -t 0.057121 -n 22 -e 9999.997368
N -t 0.057121 -n 15 -e 9999.997339
N -t 0.057121 -n 0 -e 9999.997368
N -t 0.057121 -n 6 -e 9999.997339
N -t 0.057121 -n 26 -e 9999.997556
N -t 0.057121 -n 12 -e 9999.997259
r 0.057420874 _2_ MAC  --- 5 AOLSR 48 [0 ffffffff 5 800] [energy 9999.997339 ei 0.002 es 0.000 et 0.000 er 0.001] ------- [5:255 -1:255 32 0] [1 0 [HELLO 5 0 0]]
r 0.057420874 _8_ MAC  --- 5 AOLSR 48 [0 ffffffff 5 800] [energy 9999.997339 ei 0.002 es 0.000 et 0.000 er 0.001] ------- [5:255 -1:255 32 0] [1 0 [HELLO 5 0 0]]
r 0.057420958 _11_ MAC  --- 5 AOLSR 48 [0 ffffffff 5 800] [energy 9999.997339 ei 0.002 es 0.000 et 0.000 er 0.001] ------- [5:255 -1:255 32 0] [1 0 [HELLO 5 0 0]]
r 0.057421124 _4_ MAC  --- 5 AOLSR 48 [0 ffffffff 5 800] [energy 9999.997339 ei 0.002 es 0.000 et 0.000 er 0.001] ------- [5:255 -1:255 32 0] [1 0 [HELLO 5 0 0]]
r 0.057421127 _28_ MAC  --- 5 AOLSR 48 [0 ffffffff 5 800] [energy 9999.997665 ei 0.002 es 0.000 et 0.000 er 0.000] ------- [5:255 -1:255 32 0] [1 0 [HELLO 5 0 0]]
r 0.057421278 _14_ MAC  --- 5 AOLSR 48 [0 ffffffff 5 800] [energy 9999.997260 ei 0.002 es 0.000 et 0.000 er 0.001] ------- [5:255 -1:255 32 0] [1 0 [HELLO 5 0 0]]
r 0.057421291 _10_ MAC  --- 5 AOLSR 48 [0 ffffffff 5 800] [energy 9999.997339 ei 0.002 es 0.000 et 0.000 er 0.001] ------- [5:255 -1:255 32 0] [1 0 [HELLO 5 0 0]]
r 0.057445874 _2_ RTR  --- 5 AOLSR 48 [0 ffffffff 5 800] [energy 9999.997339 ei 0.002 es 0.000 et 0.000 er 0.001] ------- [5:255 -1:255 32 0] [1 0 [HELLO 5 0 0]]
r 0.057445874 _8_ RTR  --- 5 AOLSR 48 [0 ffffffff 5 800] [energy 9999.997339 ei 0.002 es 0.000 et 0.000 er 0.001] ------- [5:255 -1:255 32 0] [1 0 [HELLO 5 0 0]]
r 0.057445958 _11_ RTR  --- 5 AOLSR 48 [0 ffffffff 5 800] [energy 9999.997339 ei 0.002 es 0.000 et 0.000 er 0.001] ------- [5:255 -1:255 32 0] [1 0 [HELLO 5 0 0]]
r 0.057446124 _4_ RTR  --- 5 AOLSR 48 [0 ffffffff 5 800] [energy 9999.997339 ei 0.002 es 0.000 et 0.000 er 0.001] ------- [5:255 -1:255 32 0] [1 0 [HELLO 5 0 0]]
r 0.057446127 _28_ RTR  --- 5 AOLSR 48 [0 ffffffff 5 800] [energy 9999.997665 ei 0.002 es 0.000 et 0.000 er 0.000] ------- [5:255 -1:255 32 0] [1 0 [HELLO 5 0 0]]
r 0.057446278 _14_ RTR  --- 5 AOLSR 48 [0 ffffffff 5 800] [energy 9999.997260 ei 0.002 es 0.000 et 0.000 er 0.001] ------- [5:255 -1:255 32 0] [1 0 [HELLO 5 0 0]]
r 0.057446291 _10_ RTR  --- 5 AOLSR 48 [0 ffffffff 5 800] [energy 9999.997339 ei 0.002 es 0.000 et 0.000 er 0.001] ------- [5:255 -1:255 32 0] [1 0 [HELLO 5 0 0]]
s 0.082072703 _4_ RTR  --- 6 AOLSR 48 [0 0 0 0] [energy 9999.997339 ei 0.002 es 0.000 et 0.000 er 0.001] ------- [4:255 -1:255 32 0] [1 0 [HELLO 4 0 0]]
s 0.082467703 _4_ MAC  --- 6 AOLSR 106 [0 ffffffff 4 800] [energy 9999.997339 ei 0.002 es 0.000 et 0.000 er 0.001] ------- [4:255 -1:255 32 0] [1 0 [HELLO 4 0 0]]
N -t 0.082468 -n 2 -e 9999.996344
N -t 0.082468 -n 1 -e 9999.996264
N -t 0.082468 -n 7 -e 9999.996344
N -t 0.082468 -n 8 -e 9999.996344
N -t 0.082468 -n 10 -e 9999.996344
N -t 0.082468 -n 3 -e 9999.996344
N -t 0.082468 -n 5 -e 9999.996264
N -t 0.082468 -n 29 -e 9999.996344
N -t 0.082469 -n 13 -e 9999.996344
N -t 0.082469 -n 14 -e 9999.996264
N -t 0.082469 -n 9 -e 9999.996344
N -t 0.082469 -n 11 -e 9999.996344
N -t 0.082469 -n 16 -e 9999.996344
N -t 0.082469 -n 0 -e 9999.996372
N -t 0.082469 -n 6 -e 9999.996344
N -t 0.082469 -n 28 -e 9999.996669
N -t 0.082469 -n 15 -e 9999.996344
N -t 0.082469 -n 17 -e 9999.996452
N -t 0.082469 -n 12 -e 9999.996264
N -t 0.082469 -n 19 -e 9999.996344
N -t 0.082469 -n 20 -e 9999.996452
N -t 0.082469 -n 27 -e 9999.996561
N -t 0.082469 -n 22 -e 9999.996372
N -t 0.082469 -n 18 -e 9999.996452
N -t 0.082469 -n 21 -e 9999.996452
N -t 0.082469 -n 23 -e 9999.996561
N -t 0.082469 -n 25 -e 9999.996669
N -t 0.082469 -n 26 -e 9999.996561
r 0.082769453 _2_ MAC  --- 6 AOLSR 48 [0 ffffffff 4 800] [energy 9999.996344 ei 0.003 es 0.000 et 0.000 er 0.001] ------- [4:255 -1:255 32 0] [1 0 [HELLO 4 0 0]]
r 0.082769453 _1_ MAC  --- 6 AOLSR 48 [0 ffffffff 4 800] [energy 9999.996264 ei 0.003 es 0.000 et 0.000 er 0.001] ------- [4:255 -1:255 32 0] [1 0 [HELLO 4 0 0]]
r 0.082769453 _7_ MAC  --- 6 AOLSR 48 [0 ffffffff 4 800] [energy 9999.996344 ei 0.003 es 0.000 et 0.000 er 0.001] ------- [4:255 -1:255 32 0] [1 0 [HELLO 4 0 0]]
r 0.082769453 _8_ MAC  --- 6 AOLSR 48 [0 ffffffff 4 800] [energy 9999.996344 ei 0.003 es 0.000 et 0.000 er 0.001] ------- [4:255 -1:255 32 0] [1 0 [HELLO 4 0 0]]
r 0.082769537 _10_ MAC  --- 6 AOLSR 48 [0 ffffffff 4 800] [energy 9999.996344 ei 0.003 es 0.000 et 0.000 er 0.001] ------- [4:255 -1:255 32 0] [1 0 [HELLO 4 0 0]]
r 0.082769703 _3_ MAC  --- 6 AOLSR 48 [0 ffffffff 4 800] [energy 9999.996344 ei 0.003 es 0.000 et 0.000 er 0.001] ------- [4:255 -1:255 32 0] [1 0 [HELLO 4 0 0]]
r 0.082769703 _5_ MAC  --- 6 AOLSR 48 [0 ffffffff 4 800] [energy 9999.996264 ei 0.003 es 0.000 et 0.000 er 0.001] ------- [4:255 -1:255 32 0] [1 0 [HELLO 4 0 0]]
r 0.082769787 _29_ MAC  --- 6 AOLSR 48 [0 ffffffff 4 800] [energy 9999.996344 ei 0.003 es 0.000 et 0.000 er 0.001] ------- [4:255 -1:255 32 0] [1 0 [HELLO 4 0 0]]
r 0.082769857 _13_ MAC  --- 6 AOLSR 48 [0 ffffffff 4 800] [energy 9999.996344 ei 0.003 es 0.000 et 0.000 er 0.001] ------- [4:255 -1:255 32 0] [1 0 [HELLO 4 0 0]]
r 0.082769857 _14_ MAC  --- 6 AOLSR 48 [0 ffffffff 4 800] [energy 9999.996264 ei 0.003 es 0.000 et 0.000 er 0.001] ------- [4:255 -1:255 32 0] [1 0 [HELLO 4 0 0]]
r 0.082769870 _9_ MAC  --- 6 AOLSR 48 [0 ffffffff 4 800] [energy 9999.996344 ei 0.003 es 0.000 et 0.000 er 0.001] ------- [4:255 -1:255 32 0] [1 0 [HELLO 4 0 0]]
r 0.082769870 _11_ MAC  --- 6 AOLSR 48 [0 ffffffff 4 800] [energy 9999.996344 ei 0.003 es 0.000 et 0.000 er 0.001] ------- [4:255 -1:255 32 0] [1 0 [HELLO 4 0 0]]
r 0.082794453 _2_ RTR  --- 6 AOLSR 48 [0 ffffffff 4 800] [energy 9999.996344 ei 0.003 es 0.000 et 0.000 er 0.001] ------- [4:255 -1:255 32 0] [1 0 [HELLO 4 0 0]]
r 0.082794453 _1_ RTR  --- 6 AOLSR 48 [0 ffffffff 4 800] [energy 9999.996264 ei 0.003 es 0.000 et 0.000 er 0.001] ------- [4:255 -1:255 32 0] [1 0 [HELLO 4 0 0]]
r 0.082794453 _7_ RTR  --- 6 AOLSR 48 [0 ffffffff 4 800] [energy 9999.996344 ei 0.003 es 0.000 et 0.000 er 0.001] ------- [4:255 -1:255 32 0] [1 0 [HELLO 4 0 0]]