n -t * -s 0  -x 100 -y 100 -Z 0 -z 20  -v circle -c green
n -t * -s 1  -x 100 -y 300 -Z 0 -z 20  -v circle -c green
n -t * -s 2  -x 100 -y 500 -Z 0 -z 20  -v circle -c green
n -t * -s 3  -x 175 -y 200 -Z 0 -z 20  -v circle -c green
n -t * -s 4  -x 175 -y 400 -Z 0 -z 20  -v circle -c green
n -t * -s 5  -x 175 -y 600 -Z 0 -z 20  -v circle -c green
n -t * -s 6  -x 250 -y 100 -Z 0 -z 20  -v circle -c green
n -t * -s 7  -x 250 -y 300 -Z 0 -z 20  -v circle -c green
n -t * -s 8  -x 250 -y 500 -Z 0 -z 20  -v circle -c green
n -t * -s 9  -x 325 -y 200 -Z 0 -z 20  -v circle -c green
n -t * -s 10  -x 325 -y 400 -Z 0 -z 20  -v circle -c green
n -t * -s 11  -x 325 -y 600 -Z 0 -z 20  -v circle -c green
n -t * -s 12  -x 400 -y 100 -Z 0 -z 20  -v circle -c green
n -t * -s 13  -x 400 -y 300 -Z 0 -z 20  -v circle -c green
n -t * -s 14  -x 400 -y 500 -Z 0 -z 20  -v circle -c green
n -t * -s 15  -x 475 -y 200 -Z 0 -z 20  -v circle -c green
n -t * -s 16  -x 475 -y 400 -Z 0 -z 20  -v circle -c green
n -t * -s 17  -x 475 -y 600 -Z 0 -z 20  -v circle -c green
n -t * -s 18  -x 550 -y 100 -Z 0 -z 20  -v circle -c green
n -t * -s 19  -x 550 -y 300 -Z 0 -z 20  -v circle -c green
n -t * -s 20  -x 550 -y 500 -Z 0 -z 20  -v circle -c green
n -t * -s 21  -x 625 -y 200 -Z 0 -z 20  -v circle -c green
n -t * -s 22  -x 625 -y 400 -Z 0 -z 20  -v circle -c green
n -t * -s 23  -x 625 -y 600 -Z 0 -z 20  -v circle -c green
n -t * -s 24  -x 700 -y 100 -Z 0 -z 20  -v circle -c green
n -t * -s 25  -x 700 -y 300 -Z 0 -z 20  -v circle -c green
n -t * -s 26  -x 700 -y 500 -Z 0 -z 20  -v circle -c green
n -t * -s 27  -x 200 -y 1 -Z 0 -z 20  -v circle -c green
n -t * -s 28  -x 1 -y 700 -Z 0 -z 20  -v circle -c green
n -t * -s 29  -x 400 -y 400 -Z 0 -z 20  -v circle -c green
V -t * -v 1.0a5 -a 0
W -t * -x 800 -y 800
A -t * -n 1 -p 0 -o 0xffffffff -c 31 -a 1
A -t * -h 1 -m 2147483647 -s 0
+ -t 0.000169789 -s 0 -d -1 -p AOLSR -e 48 -c 2 -a 0 -i 0 -k RTR 
- -t 0.000169789 -s 0 -d -1 -p AOLSR -e 48 -c 2 -a 0 -i 0 -k RTR
h -t 0.000169789 -s 0 -d -1 -p AOLSR -e 48 -c 2 -a 0 -i 0 -k RTR
+ -t 0.000824789 -s 0 -d -1 -p AOLSR -e 106 -c 2 -a 0 -i 0 -k MAC 
- -t 0.000824789 -s 0 -d -1 -p AOLSR -e 106 -c 2 -a 0 -i 0 -k MAC
h -t 0.000824789 -s 0 -d -1 -p AOLSR -e 106 -c 2 -a 0 -i 0 -k MAC
r -t 0.001126539 -s 3 -d -1 -p AOLSR -e 48 -c 2 -a 0 -i 0 -k MAC
r -t 0.001126591 -s 27 -d -1 -p AOLSR -e 48 -c 2 -a 0 -i 0 -k MAC
r -t 0.001126622 -s 6 -d -1 -p AOLSR -e 48 -c 2 -a 0 -i 0 -k MAC
r -t 0.001126789 -s 1 -d -1 -p AOLSR -e 48 -c 2 -a 0 -i 0 -k MAC
r -t 0.001126943 -s 9 -d -1 -p AOLSR -e 48 -c 2 -a 0 -i 0 -k MAC
r -t 0.001126955 -s 7 -d -1 -p AOLSR -e 48 -c 2 -a 0 -i 0 -k MAC
r -t 0.001151539 -s 3 -d -1 -p AOLSR -e 48 -c 2 -a 0 -i 0 -k RTR
r -t 0.001151591 -s 27 -d -1 -p AOLSR -e 48 -c 2 -a 0 -i 0 -k RTR
r -t 0.001151622 -s 6 -d -1 -p AOLSR -e 48 -c 2 -a 0 -i 0 -k RTR
r -t 0.001151789 -s 1 -d -1 -p AOLSR -e 48 -c 2 -a 0 -i 0 -k RTR
r -t 0.001151943 -s 9 -d -1 -p AOLSR -e 48 -c 2 -a 0 -i 0 -k RTR
r -t 0.001151955 -s 7 -d -1 -p AOLSR -e 48 -c 2 -a 0 -i 0 -k RTR
+ -t 0.044061336 -s 1 -d -1 -p AOLSR -e 48 -c 2 -a 0 -i 1 -k RTR 
- -t 0.044061336 -s 1 -d -1 -p AOLSR -e 48 -c 2 -a 0 -i 1 -k RTR
h -t 0.044061336 -s 1 -d -1 -p AOLSR -e 48 -c 2 -a 0 -i 1 -k RTR
+ -t 0.044316336 -s 1 -d -1 -p AOLSR -e 106 -c 2 -a 0 -i 1 -k MAC 
- -t 0.044316336 -s 1 -d -1 -p AOLSR -e 106 -c 2 -a 0 -i 1 -k MAC
h -t 0.044316336 -s 1 -d -1 -p AOLSR -e 106 -c 2 -a 0 -i 1 -k MAC
r -t 0.044618086 -s 3 -d -1 -p AOLSR -e 48 -c 2 -a 0 -i 1 -k MAC
r -t 0.044618086 -s 4 -d -1 -p AOLSR -e 48 -c 2 -a 0 -i 1 -k MAC
r -t 0.044618169 -s 7 -d -1 -p AOLSR -e 48 -c 2 -a 0 -i 1 -k MAC
r -t 0.044618336 -s 0 -d -1 -p AOLSR -e 48 -c 2 -a 0 -i 1 -k MAC
r -t 0.044618336 -s 2 -d -1 -p AOLSR -e 48 -c 2 -a 0 -i 1 -k MAC
r -t 0.044618490 -s 9 -d -1 -p AOLSR -e 48 -c 2 -a 0 -i 1 -k MAC
r -t 0.044618490 -s 10 -d -1 -p AOLSR -e 48 -c 2 -a 0 -i 1 -k MAC
r -t 0.044618502 -s 6 -d -1 -p AOLSR -e 48 -c 2 -a 0 -i 1 -k MAC
r -t 0.044618502 -s 8 -d -1 -p AOLSR -e 48 -c 2 -a 0 -i 1 -k MAC
r -t 0.044643086 -s 3 -d -1 -p AOLSR -e 48 -c 2 -a 0 -i 1 -k RTR
r -t 0.044643086 -s 4 -d -1 -p AOLSR -e 48 -c 2 -a 0 -i 1 -k RTR
r -t 0.044643169 -s 7 -d -1 -p AOLSR -e 48 -c 2 -a 0 -i 1 -k RTR
r -t 0.044643336 -s 0 -d -1 -p AOLSR -e 48 -c 2 -a 0 -i 1 -k RTR
r -t 0.044643336 -s 2 -d -1 -p AOLSR -e 48 -c 2 -a 0 -i 1 -k RTR
r -t 0.044643490 -s 9 -d -1 -p AOLSR -e 48 -c 2 -a 0 -i 1 -k RTR
r -t 0.044643490 -s 10 -d -1 -p AOLSR -e 48 -c 2 -a 0 -i 1 -k RTR
r -t 0.044643502 -s 6 -d -1 -p AOLSR -e 48 -c 2 -a 0 -i 1 -k RTR
r -t 0.044643502 -s 8 -d -1 -p AOLSR -e 48 -c 2 -a 0 -i 1 -k RTR
+ -t 0.045678458 -s 22 -d -1 -p AOLSR -e 48 -c 2 -a 0 -i 2 -k RTR 
- -t 0.045678458 -s 22 -d -1 -p AOLSR -e 48 -c 2 -a 0 -i 2 -k RTR
h -t 0.045678458 -s 22 -d -1 -p AOLSR -e 48 -c 2 -a 0 -i 2 -k RTR
+ -t 0.046193458 -s 22 -d -1 -p AOLSR -e 106 -c 2 -a 0 -i 2 -k MAC 
- -t 0.046193458 -s 22 -d -1 -p AOLSR -e 106 -c 2 -a 0 -i 2 -k MAC
h -t 0.046193458 -s 22 -d -1 -p AOLSR -e 106 -c 2 -a 0 -i 2 -k MAC
r -t 0.046495208 -s 20 -d -1 -p AOLSR -e 48 -c 2 -a 0 -i 2 -k MAC
r -t 0.046495208 -s 19 -d -1 -p AOLSR -e 48 -c 2 -a 0 -i 2 -k MAC
r -t 0.046495208 -s 25 -d -1 -p AOLSR -e 48 -c 2 -a 0 -i 2 -k MAC
r -t 0.046495208 -s 26 -d -1 -p AOLSR -e 48 -c 2 -a 0 -i 2 -k MAC
r -t 0.046495291 -s 16 -d -1 -p AOLSR -e 48 -c 2 -a 0 -i 2 -k MAC
r -t 0.046495458 -s 21 -d -1 -p AOLSR -e 48 -c 2 -a 0 -i 2 -k MAC
r -t 0.046495458 -s 23 -d -1 -p AOLSR -e 48 -c 2 -a 0 -i 2 -k MAC
r -t 0.046495541 -s 29 -d -1 -p AOLSR -e 48 -c 2 -a 0 -i 2 -k MAC
r -t 0.046495612 -s 14 -d -1 -p AOLSR -e 48 -c 2 -a 0 -i 2 -k MAC
r -t 0.046495612 -s 13 -d -1 -p AOLSR -e 48 -c 2 -a 0 -i 2 -k MAC
r -t 0.046495625 -s 17 -d -1 -p AOLSR -e 48 -c 2 -a 0 -i 2 -k MAC
r -t 0.046495625 -s 15 -d -1 -p AOLSR -e 48 -c 2 -a 0 -i 2 -k MAC
r -t 0.046520208 -s 20 -d -1 -p AOLSR -e 48 -c 2 -a 0 -i 2 -k RTR
r -t 0.046520208 -s 19 -d -1 -p AOLSR -e 48 -c 2 -a 0 -i 2 -k RTR
r -t 0.046520208 -s 25 -d -1 -p AOLSR -e 48 -c 2 -a 0 -i 2 -k RTR
r -t 0.046520208 -s 26 -d -1 -p AOLSR -e 48 -c 2 -a 0 -i 2 -k RTR
r -t 0.046520291 -s 16 -d -1 -p AOLSR -e 48 -c 2 -a 0 -i 2 -k RTR
r -t 0.046520458 -s 21 -d -1 -p AOLSR -e 48 -c 2 -a 0 -i 2 -k RTR
r -t 0.046520458 -s 23 -d -1 -p AOLSR -e 48 -c 2 -a 0 -i 2 -k RTR
r -t 0.046520541 -s 29 -d -1 -p AOLSR -e 48 -c 2 -a 0 -i 2 -k RTR
r -t 0.046520612 -s 14 -d -1 -p AOLSR -e 48 -c 2 -a 0 -i 2 -k RTR
r -t 0.046520612 -s 13 -d -1 -p AOLSR -e 48 -c 2 -a 0 -i 2 -k RTR
r -t 0.046520625 -s 17 -d -1 -p AOLSR -e 48 -c 2 -a 0 -i 2 -k RTR
r -t 0.046520625 -s 15 -d -1 -p AOLSR -e 48 -c 2 -a 0 -i 2 -k RTR
+ -t 0.054599236 -s 12 -d -1 -p AOLSR -e 48 -c 2 -a 0 -i 3 -k RTR 
- -t 0.054599236 -s 12 -d -1 -p AOLSR -e 48 -c 2 -a 0 -i 3 -k RTR
h -t 0.054599236 -s 12 -d -1 -p AOLSR -e 48 -c 2 -a 0 -i 3 -k RTR
+ -t 0.054794236 -s 12 -d -1 -p AOLSR -e 106 -c 2 -a 0 -i 3 -k MAC 
- -t 0.054794236 -s 12 -d -1 -p AOLSR -e 106 -c 2 -a 0 -i 3 -k MAC
h -t 0.054794236 -s 12 -d -1 -p AOLSR -e 106 -c 2 -a 0 -i 3 -k MAC
r -t 0.055095986 -s 9 -d -1 -p AOLSR -e 48 -c 2 -a 0 -i 3 -k MAC
r -t 0.055095986 -s 15 -d -1 -p AOLSR -e 48 -c 2 -a 0 -i 3 -k MAC
r -t 0.055096069 -s 6 -d -1 -p AOLSR -e 48 -c 2 -a 0 -i 3 -k MAC
r -t 0.055096069 -s 18 -d -1 -p AOLSR -e 48 -c 2 -a 0 -i 3 -k MAC
r -t 0.055096236 -s 13 -d -1 -p AOLSR -e 48 -c 2 -a 0 -i 3 -k MAC
r -t 0.055096313 -s 27 -d -1 -p AOLSR -e 48 -c 2 -a 0 -i 3 -k MAC
r -t 0.055096390 -s 3 -d -1 -p AOLSR -e 48 -c 2 -a 0 -i 3 -k MAC
r -t 0.055096390 -s 21 -d -1 -p AOLSR -e 48 -c 2 -a 0 -i 3 -k MAC
r -t 0.055096403 -s 7 -d -1 -p AOLSR -e 48 -c 2 -a 0 -i 3 -k MAC
r -t 0.055096403 -s 19 -d -1 -p AOLSR -e 48 -c 2 -a 0 -i 3 -k MAC
r -t 0.055120986 -s 9 -d -1 -p AOLSR -e 48 -c 2 -a 0 -i 3 -k RTR
r -t 0.055120986 -s 15 -d -1 -p AOLSR -e 48 -c 2 -a 0 -i 3 -k RTR
r -t 0.055121069 -s 6 -d -1 -p AOLSR -e 48 -c 2 -a 0 -i 3 -k RTR
r -t 0.055121069 -s 18 -d -1 -p AOLSR -e 48 -c 2 -a 0 -i 3 -k RTR
r -t 0.055121236 -s 13 -d -1 -p AOLSR -e 48 -c 2 -a 0 -i 3 -k RTR
r -t 0.055121313 -s 27 -d -1 -p AOLSR -e 48 -c 2 -a 0 -i 3 -k RTR
r -t 0.055121390 -s 3 -d -1 -p AOLSR -e 48 -c 2 -a 0 -i 3 -k RTR
r -t 0.055121390 -s 21 -d -1 -p AOLSR -e 48 -c 2 -a 0 -i 3 -k RTR
r -t 0.055121403 -s 7 -d -1 -p AOLSR -e 48 -c 2 -a 0 -i 3 -k RTR
r -t 0.055121403 -s 19 -d -1 -p AOLSR -e 48 -c 2 -a 0 -i 3 -k RTR
+ -t 0.056015658 -s 14 -d -1 -p AOLSR -e 48 -c 2 -a 0 -i 4 -k RTR 
- -t 0.056015658 -s 14 -d -1 -p AOLSR -e 48 -c 2 -a 0 -i 4 -k RTR
h -t 0.056015658 -s 14 -d -1 -p AOLSR -e 48 -c 2 -a 0 -i 4 -k RTR
+ -t 0.056310658 -s 14 -d -1 -p AOLSR -e 106 -c 2 -a 0 -i 4 -k MAC 
- -t 0.056310658 -s 14 -d -1 -p AOLSR -e 106 -c 2 -a 0 -i 4 -k MAC
h -t 0.056310658 -s 14 -d -1 -p AOLSR -e 106 -c 2 -a 0 -i 4 -k MAC
r -t 0.056612325 -s 29 -d -1 -p AOLSR -e 48 -c 2 -a 0 -i 4 -k MAC
r -t 0.056612408 -s 11 -d -1 -p AOLSR -e 48 -c 2 -a 0 -i 4 -k MAC
r -t 0.056612408 -s 10 -d -1 -p AOLSR -e 48 -c 2 -a 0 -i 4 -k MAC
r -t 0.056612408 -s 16 -d -1 -p AOLSR -e 48 -c 2 -a 0 -i 4 -k MAC
r -t 0.056612408 -s 17 -d -1 -p AOLSR -e 48 -c 2 -a 0 -i 4 -k MAC
r -t 0.056612491 -s 8 -d -1 -p AOLSR -e 48 -c 2 -a 0 -i 4 -k MAC
r -t 0.056612491 -s 20 -d -1 -p AOLSR -e 48 -c 2 -a 0 -i 4 -k MAC
r -t 0.056612658 -s 13 -d -1 -p AOLSR -e 48 -c 2 -a 0 -i 4 -k MAC
r -t 0.056612812 -s 5 -d -1 -p AOLSR -e 48 -c 2 -a 0 -i 4 -k MAC
r -t 0.056612812 -s 4 -d -1 -p AOLSR -e 48 -c 2 -a 0 -i 4 -k MAC
r -t 0.056612812 -s 22 -d -1 -p AOLSR -e 48 -c 2 -a 0 -i 4 -k MAC
r -t 0.056612812 -s 23 -d -1 -p AOLSR -e 48 -c 2 -a 0 -i 4 -k MAC
r -t 0.056612825 -s 7 -d -1 -p AOLSR -e 48 -c 2 -a 0 -i 4 -k MAC
r -t 0.056612825 -s 19 -d -1 -p AOLSR -e 48 -c 2 -a 0 -i 4 -k MAC
r -t 0.056637325 -s 29 -d -1 -p AOLSR -e 48 -c 2 -a 0 -i 4 -k RTR
r -t 0.056637408 -s 11 -d -1 -p AOLSR -e 48 -c 2 -a 0 -i 4 -k RTR
r -t 0.056637408 -s 10 -d -1 -p AOLSR -e 48 -c 2 -a 0 -i 4 -k RTR
r -t 0.056637408 -s 16 -d -1 -p AOLSR -e 48 -c 2 -a 0 -i 4 -k RTR
r -t 0.056637408 -s 17 -d -1 -p AOLSR -e 48 -c 2 -a 0 -i 4 -k RTR
r -t 0.056637491 -s 8 -d -1 -p AOLSR -e 48 -c 2 -a 0 -i 4 -k RTR
r -t 0.056637491 -s 20 -d -1 -p AOLSR -e 48 -c 2 -a 0 -i 4 -k RTR
r -t 0.056637658 -s 13 -d -1 -p AOLSR -e 48 -c 2 -a 0 -i 4 -k RTR
r -t 0.056637812 -s 5 -d -1 -p AOLSR -e 48 -c 2 -a 0 -i 4 -k RTR
r -t 0.056637812 -s 4 -d -1 -p AOLSR -e 48 -c 2 -a 0 -i 4 -k RTR
r -t 0.056637812 -s 22 -d -1 -p AOLSR -e 48 -c 2 -a 0 -i 4 -k RTR
r -t 0.056637812 -s 23 -d -1 -p AOLSR -e 48 -c 2 -a 0 -i 4 -k RTR
r -t 0.056637825 -s 7 -d -1 -p AOLSR -e 48 -c 2 -a 0 -i 4 -k RTR
r -t 0.056637825 -s 19 -d -1 -p AOLSR -e 48 -c 2 -a 0 -i 4 -k RTR
+ -t 0.056904124 -s 5 -d -1 -p AOLSR -e 48 -c 2 -a 0 -i 5 -k RTR 
- -t 0.056904124 -s 5 -d -1 -p AOLSR -e 48 -c 2 -a 0 -i 5 -k RTR
h -t 0.056904124 -s 5 -d -1 -p AOLSR -e 48 -c 2 -a 0 -i 5 -k RTR
+ -t 0.057119124 -s 5 -d -1 -p AOLSR -e 106 -c 2 -a 0 -i 5 -k MAC 
- -t 0.057119124 -s 5 -d -1 -p AOLSR -e 106 -c 2 -a 0 -i 5 -k MAC
h -t 0.057119124 -s 5 -d -1 -p AOLSR -e 106 -c 2 -a 0 -i 5 -k MAC
r -t 0.057420874 -s 2 -d -1 -p AOLSR -e 48 -c 2 -a 0 -i 5 -k MAC
r -t 0.057420874 -s 8 -d -1 -p AOLSR -e 48 -c 2 -a 0 -i 5 -k MAC
r -t 0.057420958 -s 11 -d -1 -p AOLSR -e 48 -c 2 -a 0 -i 5 -k MAC
r -t 0.057421124 -s 4 -d -1 -p AOLSR -e 48 -c 2 -a 0 -i 5 -k MAC
r -t 0.057421127 -s 28 -d -1 -p AOLSR -e 48 -c 2 -a 0 -i 5 -k MAC
r -t 0.057421278 -s 14 -d -1 -p AOLSR -e 48 -c 2 -a 0 -i 5 -k MAC
r -t 0.057421291 -s 10 -d -1 -p AOLSR -e 48 -c 2 -a 0 -i 5 -k MAC
r -t 0.057445874 -s 2 -d -1 -p AOLSR -e 48 -c 2 -a 0 -i 5 -k RTR
r -t 0.057445874 -s 8 -d -1 -p AOLSR -e 48 -c 2 -a 0 -i 5 -k RTR
r -t 0.057445958 -s 11 -d -1 -p AOLSR -e 48 -c 2 -a 0 -i 5 -k RTR
r -t 0.057446124 -s 4 -d -1 -p AOLSR -e 48 -c 2 -a 0 -i 5 -k RTR
r -t 0.057446127 -s 28 -d -1 -p AOLSR -e 48 -c 2 -a 0 -i 5 -k RTR
r -t 0.057446278 -s 14 -d -1 -p AOLSR -e 48 -c 2 -a 0 -i 5 -k RTR
r -t 0.057446291 -s 10 -d -1 -p AOLSR -e 48 -c 2 -a 0 -i 5 -k RTR
+ -t 0.082072703 -s 4 -d -1 -p AOLSR -e 48 -c 2 -a 0 -i 6 -k RTR 
- -t 0.082072703 -s 4 -d -1 -p AOLSR -e 48 -c 2 -a 0 -i 6 -k RTR
h -t 0.082072703 -s 4 -d -1 -p AOLSR -e 48 -c 2 -a 0 -i 6 -k RTR
+ -t 0.082467703 -s 4 -d -1 -p AOLSR -e 106 -c 2 -a 0 -i 6 -k MAC 
- -t 0.082467703 -s 4 -d -1 -p AOLSR -e 106 -c 2 -a 0 -i 6 -k MAC
h -t 0.082467703 -s 4 -d -1 -p AOLSR -e 106 -c 2 -a 0 -i 6 -k MAC
r -t 0.082769453 -s 2 -d -1 -p AOLSR -e 48 -c 2 -a 0 -i 6 -k MAC
r -t 0.082769453 -s 1 -d -1 -p AOLSR -e 48 -c 2 -a 0 -i 6 -k MAC
r -t 0.082769453 -s 7 -d -1 -p AOLSR -e 48 -c 2 -a 0 -i 6 -k MAC
r -t 0.082769453 -s 8 -d -1 -p AOLSR -e 48 -c 2 -a 0 -i 6 -k MAC
r -t 0.082769537 -s 10 -d -1 -p AOLSR -e 48 -c 2 -a 0 -i 6 -k MAC
r -t 0.082769703 -s 3 -d -1 -p AOLSR -e 48 -c 2 -a 0 -i 6 -k MAC
r -t 0.082769703 -s 5 -d -1 -p AOLSR -e 48 -c 2 -a 0 -i 6 -k MAC
r -t 0.082769787 -s 29 -d -1 -p AOLSR -e 48 -c 2 -a 0 -i 6 -k MAC
r -t 0.082769857 -s 13 -d -1 -p AOLSR -e 48 -c 2 -a 0 -i 6 -k MAC
r -t 0.082769857 -s 14 -d -1 -p AOLSR -e 48 -c 2 -a 0 -i 6 -k MAC
r -t 0.082769870 -s 9 -d -1 -p AOLSR -e 48 -c 2 -a 0 -i 6 -k MAC
r -t 0.082769870 -s 11 -d -1 -p AOLSR -e 48 -c 2 -a 0 -i 6 -k MAC
r -t 0.082794453 -s 2 -d -1 -p AOLSR -e 48 -c 2 -a 0 -i 6 -k RTR
r -t 0.082794453 -s 1 -d -1 -p AOLSR -e 48 -c 2 -a 0 -i 6 -k RTR
r -t 0.082794453 -s 7 -d -1 -p AOLSR -e 48 -c 2 -a 0 -i 6 -k RTR
r -t 0.082794453 -s 8 -d -1 -p AOLSR -e 48 -c 2 -a 0 -i 6 -k RTR
r -t 0.082794537 -s 10 -d -1 -p AOLSR -e 48 -c 2 -a 0 -i 6 -k RTR
r -t 0.082794703 -s 3 -d -1 -p AOLSR -e 48 -c 2 -a 0 -i 6 -k RTR
r -t 0.082794703 -s 5 -d -1 -p AOLSR -e 48 -c 2 -a 0 -i 6 -k RTR
r -t 0.082794787 -s 29 -d -1 -p AOLSR -e 48 -c 2 -a 0 -i 6 -k RTR
r -t 0.082794857 -s 13 -d -1 -p AOLSR -e 48 -c 2 -a 0 -i 6 -k RTR
r -t 0.082794857 -s 14 -d -1 -p AOLSR -e 48 -c 2 -a 0 -i 6 -k RTR
r -t 0.082794870 -s 9 -d -1 -p AOLSR -e 48 -c 2 -a 0 -i 6 -k RTR
r -t 0.082794870 -s 11 -d -1 -p AOLSR -e 48 -c 2 -a 0 -i 6 -k RTR
+ -t 0.087402627 -s 6 -d -1 -p AOLSR -e 48 -c 2 -a 0 -i 7 -k RTR 
- -t 0.087402627 -s 6 -d -1 -p AOLSR -e 48 -c 2 -a 0 -i 7 -k RTR
h -t 0.087402627 -s 6 -d -1 -p AOLSR -e 48 -c 2 -a 0 -i 7 -k RTR
+ -t 0.087977627 -s 6 -d -1 -p AOLSR -e 106 -c 2 -a 0 -i 7 -k MAC 
- -t 0.087977627 -s 6 -d -1 -p AOLSR -e 106 -c 2 -a 0 -i 7 -k MAC
h -t 0.087977627 -s 6 -d -1 -p AOLSR -e 106 -c 2 -a 0 -i 7 -k MAC
r -t 0.088279330 -s 27 -d -1 -p AOLSR -e 48 -c 2 -a 0 -i 7 -k MAC
r -t 0.088279377 -s 3 -d -1 -p AOLSR -e 48 -c 2 -a 0 -i 7 -k MAC
r -t 0.088279377 -s 9 -d -1 -p AOLSR -e 48 -c 2 -a 0 -i 7 -k MAC
r -t 0.088279460 -s 0 -d -1 -p AOLSR -e 48 -c 2 -a 0 -i 7 -k MAC
r -t 0.088279460 -s 12 -d -1 -p AOLSR -e 48 -c 2 -a 0 -i 7 -k MAC
r -t 0.088279627 -s 7 -d -1 -p AOLSR -e 48 -c 2 -a 0 -i 7 -k MAC
r -t 0.088279781 -s 15 -d -1 -p AOLSR -e 48 -c 2 -a 0 -i 7 -k MAC
r -t 0.088279794 -s 1 -d -1 -p AOLSR -e 48 -c 2 -a 0 -i 7 -k MAC
r -t 0.088279794 -s 13 -d -1 -p AOLSR -e 48 -c 2 -a 0 -i 7 -k MAC
r -t 0.088304330 -s 27 -d -1 -p AOLSR -e 48 -c 2 -a 0 -i 7 -k RTR
r -t 0.088304377 -s 3 -d -1 -p AOLSR -e 48 -c 2 -a 0 -i 7 -k RTR
r -t 0.088304377 -s 9 -d -1 -p AOLSR -e 48 -c 2 -a 0 -i 7 -k RTR
r -t 0.088304460 -s 0 -d -1 -p AOLSR -e 48 -c 2 -a 0 -i 7 -k RTR
r -t 0.088304460 -s 12 -d -1 -p AOLSR -e 48 -c 2 -a 0 -i 7 -k RTR
r -t 0.088304627 -s 7 -d -1 -p AOLSR -e 48 -c 2 -a 0 -i 7 -k RTR
r -t 0.088304781 -s 15 -d -1 -p AOLSR -e 48 -c 2 -a 0 -i 7 -k RTR
r -t 0.088304794 -s 1 -d -1 -p AOLSR -e 48 -c 2 -a 0 -i 7 -k RTR
r -t 0.088304794 -s 13 -d -1 -p AOLSR -e 48 -c 2 -a 0 -i 7 -k RTR
+ -t 0.120612814 -s 10 -d -1 -p AOLSR -e 48 -c 2 -a 0 -i 8 -k RTR 
- -t 0.120612814 -s 10 -d -1 -p AOLSR -e 48 -c 2 -a 0 -i 8 -k RTR
h -t 0.120612814 -s 10 -d -1 -p AOLSR -e 48 -c 2 -a 0 -i 8 -k RTR
+ -t 0.120847814 -s 10 -d -1 -p AOLSR -e 106 -c 2 -a 0 -i 8 -k MAC 
- -t 0.120847814 -s 10 -d -1 -p AOLSR -e 106 -c 2 -a 0 -i 8 -k MAC
h -t 0.120847814 -s 10 -d -1 -p AOLSR -e 106 -c 2 -a 0 -i 8 -k MAC
r -t 0.121149397 -s 29 -d -1 -p AOLSR -e 48 -c 2 -a 0 -i 8 -k MAC
r -t 0.121149564 -s 8 -d -1 -p AOLSR -e 48 -c 2 -a 0 -i 8 -k MAC
r -t 0.121149564 -s 7 -d -1 -p AOLSR -e 48 -c 2 -a 0 -i 8 -k MAC
r -t 0.121149564 -s 13 -d -1 -p AOLSR -e 48 -c 2 -a 0 -i 8 -k MAC
r -t 0.121149564 -s 14 -d -1 -p AOLSR -e 48 -c 2 -a 0 -i 8 -k MAC
r -t 0.121149647 -s 4 -d -1 -p AOLSR -e 48 -c 2 -a 0 -i 8 -k MAC
r -t 0.121149647 -s 16 -d -1 -p AOLSR -e 48 -c 2 -a 0 -i 8 -k MAC
r -t 0.121149814 -s 9 -d -1 -p AOLSR -e 48 -c 2 -a 0 -i 8 -k MAC
r -t 0.121149814 -s 11 -d -1 -p AOLSR -e 48 -c 2 -a 0 -i 8 -k MAC
r -t 0.121149968 -s 2 -d -1 -p AOLSR -e 48 -c 2 -a 0 -i 8 -k MAC
r -t 0.121149968 -s 1 -d -1 -p AOLSR -e 48 -c 2 -a 0 -i 8 -k MAC
r -t 0.121149968 -s 19 -d -1 -p AOLSR -e 48 -c 2 -a 0 -i 8 -k MAC
r -t 0.121149968 -s 20 -d -1 -p AOLSR -e 48 -c 2 -a 0 -i 8 -k MAC
r -t 0.121149981 -s 5 -d -1 -p AOLSR -e 48 -c 2 -a 0 -i 8 -k MAC
r -t 0.121149981 -s 3 -d -1 -p AOLSR -e 48 -c 2 -a 0 -i 8 -k MAC
r -t 0.121149981 -s 15 -d -1 -p AOLSR -e 48 -c 2 -a 0 -i 8 -k MAC
r -t 0.121149981 -s 17 -d -1 -p AOLSR -e 48 -c 2 -a 0 -i 8 -k MAC
r -t 0.121174397 -s 29 -d -1 -p AOLSR -e 48 -c 2 -a 0 -i 8 -k RTR
r -t 0.121174564 -s 8 -d -1 -p AOLSR -e 48 -c 2 -a 0 -i 8 -k RTR
r -t 0.121174564 -s 7 -d -1 -p AOLSR -e 48 -c 2 -a 0 -i 8 -k RTR
r -t 0.121174564 -s 13 -d -1 -p AOLSR -e 48 -c 2 -a 0 -i 8 -k RTR
r -t 0.121174564 -s 14 -d -1 -p AOLSR -e 48 -c 2 -a 0 -i 8 -k RTR
r -t 0.121174647 -s 4 -d -1 -p AOLSR -e 48 -c 2 -a 0 -i 8 -k RTR
r -t 0.121174647 -s 16 -d -1 -p AOLSR -e 48 -c 2 -a 0 -i 8 -k RTR
r -t 0.121174814 -s 9 -d -1 -p AOLSR -e 48 -c 2 -a 0 -i 8 -k RTR
r -t 0.121174814 -s 11 -d -1 -p AOLSR -e 48 -c 2 -a 0 -i 8 -k RTR
r -t 0.121174968 -s 2 -d -1 -p AOLSR -e 48 -c 2 -a 0 -i 8 -k RTR
r -t 0.121174968 -s 1 -d -1 -p AOLSR -e 48 -c 2 -a 0 -i 8 -k RTR
r -t 0.121174968 -s 19 -d -1 -p AOLSR -e 48 -c 2 -a 0 -i 8 -k RTR
r -t 0.121174968 -s 20 -d -1 -p AOLSR -e 48 -c 2 -a 0 -i 8 -k RTR
r -t 0.121174981 -s 5 -d -1 -p AOLSR -e 48 -c 2 -a 0 -i 8 -k RTR
r -t 0.121174981 -s 3 -d -1 -p AOLSR -e 48 -c 2 -a 0 -i 8 -k RTR
r -t 0.121174981 -s 15 -d -1 -p AOLSR -e 48 -c 2 -a 0 -i 8 -k RTR
r -t 0.121174981 -s 17 -d -1 -p AOLSR -e 48 -c 2 -a 0 -i 8 -k RTR
+ -t 0.156480886 -s 2 -d -1 -p AOLSR -e 48 -c 2 -a 0 -i 9 -k RTR 
- -t 0.156480886 -s 2 -d -1 -p AOLSR -e 48 -c 2 -a 0 -i 9 -k RTR
h -t 0.156480886 -s 2 -d -1 -p AOLSR -e 48 -c 2 -a 0 -i 9 -k RTR
+ -t 0.156815886 -s 2 -d -1 -p AOLSR -e 106 -c 2 -a 0 -i 9 -k MAC 
- -t 0.156815886 -s 2 -d -1 -p AOLSR -e 106 -c 2 -a 0 -i 9 -k MAC
h -t 0.156815886 -s 2 -d -1 -p AOLSR -e 106 -c 2 -a 0 -i 9 -k MAC
r -t 0.157117636 -s 4 -d -1 -p AOLSR -e 48 -c 2 -a 0 -i 9 -k MAC
r -t 0.157117636 -s 5 -d -1 -p AOLSR -e 48 -c 2 -a 0 -i 9 -k MAC
r -t 0.157117719 -s 8 -d -1 -p AOLSR -e 48 -c 2 -a 0 -i 9 -k MAC
r -t 0.157117886 -s 1 -d -1 -p AOLSR -e 48 -c 2 -a 0 -i 9 -k MAC
r -t 0.157117963 -s 28 -d -1 -p AOLSR -e 48 -c 2 -a 0 -i 9 -k MAC
r -t 0.157118040 -s 10 -d -1 -p AOLSR -e 48 -c 2 -a 0 -i 9 -k MAC
r -t 0.157118040 -s 11 -d -1 -p AOLSR -e 48 -c 2 -a 0 -i 9 -k MAC
r -t 0.157118052 -s 7 -d -1 -p AOLSR -e 48 -c 2 -a 0 -i 9 -k MAC
r -t 0.157142636 -s 4 -d -1 -p AOLSR -e 48 -c 2 -a 0 -i 9 -k RTR
r -t 0.157142636 -s 5 -d -1 -p AOLSR -e 48 -c 2 -a 0 -i 9 -k RTR
r -t 0.157142719 -s 8 -d -1 -p AOLSR -e 48 -c 2 -a 0 -i 9 -k RTR
r -t 0.157142886 -s 1 -d -1 -p AOLSR -e 48 -c 2 -a 0 -i 9 -k RTR
r -t 0.157142963 -s 28 -d -1 -p AOLSR -e 48 -c 2 -a 0 -i 9 -k RTR
r -t 0.157143040 -s 10 -d -1 -p AOLSR -e 48 -c 2 -a 0 -i 9 -k RTR
r -t 0.157143040 -s 11 -d -1 -p AOLSR -e 48 -c 2 -a 0 -i 9 -k RTR
r -t 0.157143052 -s 7 -d -1 -p AOLSR -e 48 -c 2 -a 0 -i 9 -k RTR
+ -t 0.163658500 -s 19 -d -1 -p AOLSR -e 48 -c 2 -a 0 -i 10 -k RTR 
- -t 0.163658500 -s 19 -d -1 -p AOLSR -e 48 -c 2 -a 0 -i 10 -k RTR
h -t 0.163658500 -s 19 -d -1 -p AOLSR -e 48 -c 2 -a 0 -i 10 -k RTR
+ -t 0.163733500 -s 19 -d -1 -p AOLSR -e 106 -c 2 -a 0 -i 10 -k MAC 
- -t 0.163733500 -s 19 -d -1 -p AOLSR -e 106 -c 2 -a 0 -i 10 -k MAC
h -t 0.163733500 -s 19 -d -1 -p AOLSR -e 106 -c 2 -a 0 -i 10 -k MAC
r -t 0.164035250 -s 16 -d -1 -p AOLSR -e 48 -c 2 -a 0 -i 10 -k MAC
r -t 0.164035250 -s 15 -d -1 -p AOLSR -e 48 -c 2 -a 0 -i 10 -k MAC
r -t 0.164035250 -s 21 -d -1 -p AOLSR -e 48 -c 2 -a 0 -i 10 -k MAC
r -t 0.164035250 -s 22 -d -1 -p AOLSR -e 48 -c 2 -a 0 -i 10 -k MAC
r -t 0.164035333 -s 13 -d -1 -p AOLSR -e 48 -c 2 -a 0 -i 10 -k MAC
r -t 0.164035333 -s 25 -d -1 -p AOLSR -e 48 -c 2 -a 0 -i 10 -k MAC
r -t 0.164035434 -s 29 -d -1 -p AOLSR -e 48 -c 2 -a 0 -i 10 -k MAC
r -t 0.164035500 -s 18 -d -1 -p AOLSR -e 48 -c 2 -a 0 -i 10 -k MAC
r -t 0.164035500 -s 20 -d -1 -p AOLSR -e 48 -c 2 -a 0 -i 10 -k MAC
r -t 0.164035654 -s 10 -d -1 -p AOLSR -e 48 -c 2 -a 0 -i 10 -k MAC
r -t 0.164035654 -s 9 -d -1 -p AOLSR -e 48 -c 2 -a 0 -i 10 -k MAC
r -t 0.164035666 -s 14 -d -1 -p AOLSR -e 48 -c 2 -a 0 -i 10 -k MAC
r -t 0.164035666 -s 12 -d -1 -p AOLSR -e 48 -c 2 -a 0 -i 10 -k MAC
r -t 0.164035666 -s 24 -d -1 -p AOLSR -e 48 -c 2 -a 0 -i 10 -k MAC
r -t 0.164035666 -s 26 -d -1 -p AOLSR -e 48 -c 2 -a 0 -i 10 -k MAC
r -t 0.164060250 -s 16 -d -1 -p AOLSR -e 48 -c 2 -a 0 -i 10 -k RTR
r -t 0.164060250 -s 15 -d -1 -p AOLSR -e 48 -c 2 -a 0 -i 10 -k RTR
r -t 0.164060250 -s 21 -d -1 -p AOLSR -e 48 -c 2 -a 0 -i 10 -k RTR
r -t 0.164060250 -s 22 -d -1 -p AOLSR -e 48 -c 2 -a 0 -i 10 -k RTR
r -t 0.164060333 -s 13 -d -1 -p AOLSR -e 48 -c 2 -a 0 -i 10 -k RTR
r -t 0.164060333 -s 25 -d -1 -p AOLSR -e 48 -c 2 -a 0 -i 10 -k RTR
r -t 0.164060434 -s 29 -d -1 -p AOLSR -e 48 -c 2 -a 0 -i 10 -k RTR
r -t 0.164060500 -s 18 -d -1 -p AOLSR -e 48 -c 2 -a 0 -i 10 -k RTR
r -t 0.164060500 -s 20 -d -1 -p AOLSR -e 48 -c 2 -a 0 -i 10 -k RTR
r -t 0.164060654 -s 10 -d -1 -p AOLSR -e 48 -c 2 -a 0 -i 10 -k RTR
r -t 0.164060654 -s 9 -d -1 -p AOLSR -e 48 -c 2 -a 0 -i 10 -k RTR
r -t 0.164060666 -s 14 -d -1 -p AOLSR -e 48 -c 2 -a 0 -i 10 -k RTR
r -t 0.164060666 -s 12 -d -1 -p AOLSR -e 48 -c 2 -a 0 -i 10 -k RTR
r -t 0.164060666 -s 24 -d -1 -p AOLSR -e 48 -c 2 -a 0 -i 10 -k RTR
r -t 0.164060666 -s 26 -d -1 -p AOLSR -e 48 -c 2 -a 0 -i 10 -k RTR
+ -t 0.174370513 -s 7 -d -1 -p AOLSR -e 48 -c 2 -a 0 -i 11 -k RTR 
- -t 0.174370513 -s 7 -d -1 -p AOLSR -e 48 -c 2 -a 0 -i 11 -k RTR
h -t 0.174370513 -s 7 -d -1 -p AOLSR -e 48 -c 2 -a 0 -i 11 -k RTR
+ -t 0.174965513 -s 7 -d -1 -p AOLSR -e 106 -c 2 -a 0 -i 11 -k MAC 
- -t 0.174965513 -s 7 -d -1 -p AOLSR -e 106 -c 2 -a 0 -i 11 -k MAC
h -t 0.174965513 -s 7 -d -1 -p AOLSR -e 106 -c 2 -a 0 -i 11 -k MAC
r -t 0.175267263 -s 4 -d -1 -p AOLSR -e 48 -c 2 -a 0 -i 11 -k MAC
r -t 0.175267263 -s 3 -d -1 -p AOLSR -e 48 -c 2 -a 0 -i 11 -k MAC
r -t 0.175267263 -s 9 -d -1 -p AOLSR -e 48 -c 2 -a 0 -i 11 -k MAC
r -t 0.175267263 -s 10 -d -1 -p AOLSR -e 48 -c 2 -a 0 -i 11 -k MAC
r -t 0.175267346 -s 1 -d -1 -p AOLSR -e 48 -c 2 -a 0 -i 11 -k MAC
r -t 0.175267346 -s 13 -d -1 -p AOLSR -e 48 -c 2 -a 0 -i 11 -k MAC
r -t 0.175267447 -s 29 -d -1 -p AOLSR -e 48 -c 2 -a 0 -i 11 -k MAC
r -t 0.175267513 -s 6 -d -1 -p AOLSR -e 48 -c 2 -a 0 -i 11 -k MAC
r -t 0.175267513 -s 8 -d -1 -p AOLSR -e 48 -c 2 -a 0 -i 11 -k MAC
r -t 0.175267667 -s 15 -d -1 -p AOLSR -e 48 -c 2 -a 0 -i 11 -k MAC
r -t 0.175267667 -s 16 -d -1 -p AOLSR -e 48 -c 2 -a 0 -i 11 -k MAC
r -t 0.175267679 -s 2 -d -1 -p AOLSR -e 48 -c 2 -a 0 -i 11 -k MAC
r -t 0.175267679 -s 0 -d -1 -p AOLSR -e 48 -c 2 -a 0 -i 11 -k MAC
r -t 0.175267679 -s 12 -d -1 -p AOLSR -e 48 -c 2 -a 0 -i 11 -k MAC
r -t 0.175267679 -s 14 -d -1 -p AOLSR -e 48 -c 2 -a 0 -i 11 -k MAC
r -t 0.175292263 -s 4 -d -1 -p AOLSR -e 48 -c 2 -a 0 -i 11 -k RTR
r -t 0.175292263 -s 3 -d -1 -p AOLSR -e 48 -c 2 -a 0 -i 11 -k RTR
r -t 0.175292263 -s 9 -d -1 -p AOLSR -e 48 -c 2 -a 0 -i 11 -k RTR
r -t 0.175292263 -s 10 -d -1 -p AOLSR -e 48 -c 2 -a 0 -i 11 -k RTR
r -t 0.175292346 -s 1 -d -1 -p AOLSR -e 48 -c 2 -a 0 -i 11 -k RTR
r -t 0.175292346 -s 13 -d -1 -p AOLSR -e 48 -c 2 -a 0 -i 11 -k RTR
r -t 0.175292447 -s 29 -d -1 -p AOLSR -e 48 -c 2 -a 0 -i 11 -k RTR
r -t 0.175292513 -s 6 -d -1 -p AOLSR -e 48 -c 2 -a 0 -i 11 -k RTR
r -t 0.175292513 -s 8 -d -1 -p AOLSR -e 48 -c 2 -a 0 -i 11 -k RTR
r -t 0.175292667 -s 15 -d -1 -p AOLSR -e 48 -c 2 -a 0 -i 11 -k RTR
r -t 0.175292667 -s 16 -d -1 -p AOLSR -e 48 -c 2 -a 0 -i 11 -k RTR
r -t 0.175292679 -s 2 -d -1 -p AOLSR -e 48 -c 2 -a 0 -i 11 -k RTR
r -t 0.175292679 -s 0 -d -1 -p AOLSR -e 48 -c 2 -a 0 -i 11 -k RTR
r -t 0.175292679 -s 12 -d -1 -p AOLSR -e 48 -c 2 -a 0 -i 11 -k RTR
r -t 0.175292679 -s 14 -d -1 -p AOLSR -e 48 -c 2 -a 0 -i 11 -k RTR
+ -t 0.178029290 -s 27 -d -1 -p AOLSR -e 48 -c 2 -a 0 -i 12 -k RTR 
- -t 0.178029290 -s 27 -d -1 -p AOLSR -e 48 -c 2 -a 0 -i 12 -k RTR
h -t 0.178029290 -s 27 -d -1 -p AOLSR -e 48 -c 2 -a 0 -i 12 -k RTR
+ -t 0.178524290 -s 27 -d -1 -p AOLSR -e 106 -c 2 -a 0 -i 12 -k MAC 
- -t 0.178524290 -s 27 -d -1 -p AOLSR -e 106 -c 2 -a 0 -i 12 -k MAC
h -t 0.178524290 -s 27 -d -1 -p AOLSR -e 106 -c 2 -a 0 -i 12 -k MAC
r -t 0.178825993 -s 6 -d -1 -p AOLSR -e 48 -c 2 -a 0 -i 12 -k MAC
r -t 0.178826093 -s 0 -d -1 -p AOLSR -e 48 -c 2 -a 0 -i 12 -k MAC
r -t 0.178826292 -s 3 -d -1 -p AOLSR -e 48 -c 2 -a 0 -i 12 -k MAC
r -t 0.178826367 -s 12 -d -1 -p AOLSR -e 48 -c 2 -a 0 -i 12 -k MAC
r -t 0.178826407 -s 9 -d -1 -p AOLSR -e 48 -c 2 -a 0 -i 12 -k MAC
r -t 0.178850993 -s 6 -d -1 -p AOLSR -e 48 -c 2 -a 0 -i 12 -k RTR
r -t 0.178851093 -s 0 -d -1 -p AOLSR -e 48 -c 2 -a 0 -i 12 -k RTR
r -t 0.178851292 -s 3 -d -1 -p AOLSR -e 48 -c 2 -a 0 -i 12 -k RTR
r -t 0.178851367 -s 12 -d -1 -p AOLSR -e 48 -c 2 -a 0 -i 12 -k RTR
r -t 0.178851407 -s 9 -d -1 -p AOLSR -e 48 -c 2 -a 0 -i 12 -k RTR
+ -t 0.203188759 -s 29 -d -1 -p AOLSR -e 48 -c 2 -a 0 -i 13 -k RTR 
- -t 0.203188759 -s 29 -d -1 -p AOLSR -e 48 -c 2 -a 0 -i 13 -k RTR
h -t 0.203188759 -s 29 -d -1 -p AOLSR -e 48 -c 2 -a 0 -i 13 -k RTR
+ -t 0.203283759 -s 29 -d -1 -p AOLSR -e 106 -c 2 -a 0 -i 13 -k MAC 
- -t 0.203283759 -s 29 -d -1 -p AOLSR -e 106 -c 2 -a 0 -i 13 -k MAC
h -t 0.203283759 -s 29 -d -1 -p AOLSR -e 106 -c 2 -a 0 -i 13 -k MAC
r -t 0.203585342 -s 10 -d -1 -p AOLSR -e 48 -c 2 -a 0 -i 13 -k MAC
r -t 0.203585342 -s 16 -d -1 -p AOLSR -e 48 -c 2 -a 0 -i 13 -k MAC
r -t 0.203585426 -s 14 -d -1 -p AOLSR -e 48 -c 2 -a 0 -i 13 -k MAC
r -t 0.203585426 -s 13 -d -1 -p AOLSR -e 48 -c 2 -a 0 -i 13 -k MAC
r -t 0.203585693 -s 8 -d -1 -p AOLSR -e 48 -c 2 -a 0 -i 13 -k MAC
r -t 0.203585693 -s 7 -d -1 -p AOLSR -e 48 -c 2 -a 0 -i 13 -k MAC
r -t 0.203585693 -s 19 -d -1 -p AOLSR -e 48 -c 2 -a 0 -i 13 -k MAC
r -t 0.203585693 -s 20 -d -1 -p AOLSR -e 48 -c 2 -a 0 -i 13 -k MAC
r -t 0.203585804 -s 11 -d -1 -p AOLSR -e 48 -c 2 -a 0 -i 13 -k MAC
r -t 0.203585804 -s 9 -d -1 -p AOLSR -e 48 -c 2 -a 0 -i 13 -k MAC
r -t 0.203585804 -s 15 -d -1 -p AOLSR -e 48 -c 2 -a 0 -i 13 -k MAC
r -t 0.203585804 -s 17 -d -1 -p AOLSR -e 48 -c 2 -a 0 -i 13 -k MAC
r -t 0.203585842 -s 4 -d -1 -p AOLSR -e 48 -c 2 -a 0 -i 13 -k MAC
r -t 0.203585842 -s 22 -d -1 -p AOLSR -e 48 -c 2 -a 0 -i 13 -k MAC
r -t 0.203610342 -s 10 -d -1 -p AOLSR -e 48 -c 2 -a 0 -i 13 -k RTR
r -t 0.203610342 -s 16 -d -1 -p AOLSR -e 48 -c 2 -a 0 -i 13 -k RTR
r -t 0.203610426 -s 14 -d -1 -p AOLSR -e 48 -c 2 -a 0 -i 13 -k RTR
r -t 0.203610426 -s 13 -d -1 -p AOLSR -e 48 -c 2 -a 0 -i 13 -k RTR
r -t 0.203610693 -s 8 -d -1 -p AOLSR -e 48 -c 2 -a 0 -i 13 -k RTR
r -t 0.203610693 -s 7 -d -1 -p AOLSR -e 48 -c 2 -a 0 -i 13 -k RTR
r -t 0.203610693 -s 19 -d -1 -p AOLSR -e 48 -c 2 -a 0 -i 13 -k RTR
r -t 0.203610693 -s 20 -d -1 -p AOLSR -e 48 -c 2 -a 0 -i 13 -k RTR
r -t 0.203610804 -s 11 -d -1 -p AOLSR -e 48 -c 2 -a 0 -i 13 -k RTR
r -t 0.203610804 -s 9 -d -1 -p AOLSR -e 48 -c 2 -a 0 -i 13 -k RTR
r -t 0.203610804 -s 15 -d -1 -p AOLSR -e 48 -c 2 -a 0 -i 13 -k RTR
r -t 0.203610804 -s 17 -d -1 -p AOLSR -e 48 -c 2 -a 0 -i 13 -k RTR
r -t 0.203610842 -s 4 -d -1 -p AOLSR -e 48 -c 2 -a 0 -i 13 -k RTR
r -t 0.203610842 -s 22 -d -1 -p AOLSR -e 48 -c 2 -a 0 -i 13 -k RTR
+ -t 0.210610025 -s 24 -d -1 -p AOLSR -e 48 -c 2 -a 0 -i 14 -k RTR 
- -t 0.210610025 -s 24 -d -1 -p AOLSR -e 48 -c 2 -a 0 -i 14 -k RTR
h -t 0.210610025 -s 24 -d -1 -p AOLSR -e 48 -c 2 -a 0 -i 14 -k RTR
+ -t 0.210945025 -s 24 -d -1 -p AOLSR -e 106 -c 2 -a 0 -i 14 -k MAC 
- -t 0.210945025 -s 24 -d -1 -p AOLSR -e 106 -c 2 -a 0 -i 14 -k MAC
h -t 0.210945025 -s 24 -d -1 -p AOLSR -e 106 -c 2 -a 0 -i 14 -k MAC
r -t 0.211246775 -s 21 -d -1 -p AOLSR -e 48 -c 2 -a 0 -i 14 -k MAC
r -t 0.211246859 -s 18 -d -1 -p AOLSR -e 48 -c 2 -a 0 -i 14 -k MAC
r -t 0.211247025 -s 25 -d -1 -p AOLSR -e 48 -c 2 -a 0 -i 14 -k MAC
r -t 0.211247179 -s 15 -d -1 -p AOLSR -e 48 -c 2 -a 0 -i 14 -k MAC
r -t 0.211247192 -s 19 -d -1 -p AOLSR -e 48 -c 2 -a 0 -i 14 -k MAC
r -t 0.211271775 -s 21 -d -1 -p AOLSR -e 48 -c 2 -a 0 -i 14 -k RTR
r -t 0.211271859 -s 18 -d -1 -p AOLSR -e 48 -c 2 -a 0 -i 14 -k RTR
r -t 0.211272025 -s 25 -d -1 -p AOLSR -e 48 -c 2 -a 0 -i 14 -k RTR
r -t 0.211272179 -s 15 -d -1 -p AOLSR -e 48 -c 2 -a 0 -i 14 -k RTR
r -t 0.211272192 -s 19 -d -1 -p AOLSR -e 48 -c 2 -a 0 -i 14 -k RTR
+ -t 0.259324397 -s 8 -d -1 -p AOLSR -e 48 -c 2 -a 0 -i 15 -k RTR 
- -t 0.259324397 -s 8 -d -1 -p AOLSR -e 48 -c 2 -a 0 -i 15 -k RTR
h -t 0.259324397 -s 8 -d -1 -p AOLSR -e 48 -c 2 -a 0 -i 15 -k RTR
+ -t 0.259419397 -s 8 -d -1 -p AOLSR -e 106 -c 2 -a 0 -i 15 -k MAC 
- -t 0.259419397 -s 8 -d -1 -p AOLSR -e 106 -c 2 -a 0 -i 15 -k MAC
h -t 0.259419397 -s 8 -d -1 -p AOLSR -e 106 -c 2 -a 0 -i 15 -k MAC
r -t 0.259721147 -s 5 -d -1 -p AOLSR -e 48 -c 2 -a 0 -i 15 -k MAC
r -t 0.259721147 -s 4 -d -1 -p AOLSR -e 48 -c 2 -a 0 -i 15 -k MAC
r -t 0.259721147 -s 10 -d -1 -p AOLSR -e 48 -c 2 -a 0 -i 15 -k MAC
r -t 0.259721147 -s 11 -d -1 -p AOLSR -e 48 -c 2 -a 0 -i 15 -k MAC
r -t 0.259721231 -s 2 -d -1 -p AOLSR -e 48 -c 2 -a 0 -i 15 -k MAC
r -t 0.259721231 -s 14 -d -1 -p AOLSR -e 48 -c 2 -a 0 -i 15 -k MAC
r -t 0.259721332 -s 29 -d -1 -p AOLSR -e 48 -c 2 -a 0 -i 15 -k MAC
r -t 0.259721397 -s 7 -d -1 -p AOLSR -e 48 -c 2 -a 0 -i 15 -k MAC
r -t 0.259721551 -s 16 -d -1 -p AOLSR -e 48 -c 2 -a 0 -i 15 -k MAC
r -t 0.259721551 -s 17 -d -1 -p AOLSR -e 48 -c 2 -a 0 -i 15 -k MAC
r -t 0.259721564 -s 1 -d -1 -p AOLSR -e 48 -c 2 -a 0 -i 15 -k MAC
r -t 0.259721564 -s 13 -d -1 -p AOLSR -e 48 -c 2 -a 0 -i 15 -k MAC
r -t 0.259746147 -s 5 -d -1 -p AOLSR -e 48 -c 2 -a 0 -i 15 -k RTR